This is a multi-thread run using 1 threads
/home/dlambrecht/software/qchem41.trunk.20130919.omp.ccman2/exe/qcprog.exe .CO2.in.86737.qcin.1 /scratch/1606476.headnode.localdomain/qchem86737/

                  Welcome to Q-Chem
     A Quantum Leap Into The Future Of Chemistry

 Y. Shao, L. Fusti-Molnar, Y. Jung, J. Kussmann, C. Ochsenfeld, S. T. Brown, 
 A. T. B. Gilbert, L. V. Slipchenko, S. V. Levchenko, D. P. O'Neill, 
 R. A. DiStasio Jr., R. C. Lochan, T. Wang, G. J. O. Beran, N. A. Besley, 
 J. M. Herbert, C. Y. Lin, T. Van Voorhis, S. H. Chien, A. Sodt, R. P. Steele, 
 V. A. Rassolov, P. E. Maslen, P. P. Korambath, R. D. Adamson, B. Austin, 
 J. Baker, E. F. C. Byrd, H. Dachsel, R. J. Doerksen, A. Dreuw, B. D. Dunietz, 
 A. D. Dutoi, T. R. Furlani, S. R. Gwaltney, A. Heyden, S. Hirata, C.-P. Hsu, 
 G. Kedziora, R. Z. Khaliullin, P. Klunzinger, A. M. Lee, M. S. Lee, W. Liang, 
 I. Lotan, N. Nair, B. Peters, E. I. Proynov, P. A. Pieniazek, Y. M. Rhee, 
 J. Ritchie, E. Rosta, C. D. Sherrill, A. C. Simmonett, J. E. Subotnik, 
 H. L. Woodcock III, W. Zhang, A. T. Bell, A. K. Chakraborty, D. M. Chipman, 
 F. J. Keil, A. Warshel, W. J. Hehre, H. F. Schaefer III, J. Kong, 
 A. I. Krylov, P. M. W. Gill, M. Head-Gordon

 Additional authors for Version 3.1: 
 Z. Gan, Y. Zhao, N. E. SchultzD. Truhlar, E. Epifanovsky, M. Oana

 Additional authors for Version 3.2: 
 R. Baer, B. R. Brooks, D. Casanova, J.-D. Chai, C.-L. Cheng, C. Cramer, 
 D. Crittenden, A. Ghysels, G. Hawkins, E. G. Hohenstein, C. Kelley, 
 W. Kurlancheek, D. Liotard, E. Livshits, P. Manohar, A. Marenich, 
 D. Neuhauser, R. Olson, M. A. Rohrdanz, K. S. Thanthiriwatte, A. J. W. Thom, 
 V. Vanovschi, C. F. Williams, Q. Wu, Z.-Q. You

 Additional authors for Version 4.0: 
 A. Aspuru-Guzik, Y. Bernard, C. Chang, J. Deng, A. Dreuw, M. Diedenhofen, 
 R. G. Edgar, D. Ghosh, W. A. Goddard III, M. Goldey, L. D. Jacobson, 
 M. Gordon, B. Kaduk, I. Kaliman, K. Khistyaev, R. King, A. Klamt, 
 D. Kosenkov, T. Kus, D. Lambrecht, A. Landau, A. W. Lange, K. Lawler, F. Liu, 
 J. Liu, R. Olivares-Amaya, S. P. Mao, J. Parkhill, N. Russ, M. Schmidt, 
 N. Shenvi, D. Small, Y. C. Su, E. Sundstrom, L. Vogt, O. Vydrov, M. Watson, 
 M. Wormit, X. Xu, S. Yeganeh, I. Y. Zhang, D. Zuev

 Additional authors for Version 4.1: 
 X. Feng, M. W. D. Hanson-Heine, P. Horn, H. Ji, A. Laurent, R. Peverati, 
 N. Mardirossian, N. Sergueev, S. Sharada, P. Zimmerman


 Q-Chem, Version 4.1, Q-Chem, Inc., Pittsburgh, PA (2013).

 Intel X86 EM64T Linux Version 4.1.0.1 

 Q-chem begins on Thu Oct 31 13:28:59 2013  

Host: n9
0

     Scratch files written to /scratch/1606476.headnode.localdomain/qchem86737//
 Oct1413 |home|dlambrecht|qclab|programs|qchem|trunk|libmdc|qstr_info.C -1
Finally everything over in PARseQInput

--------------------------------------------------------------
User input:
--------------------------------------------------------------
$molecule
0 1
C         -6.49468        2.13362        0.00000
O         -5.42468        2.13362        0.00000
O         -6.85134        1.13631        0.15189
$end

$rem
jobtype         opt
exchange 	  b3lyp
basis 		 6-31G*
GEOM_OPT_TOL_DISPLACEMENT 1
GEOM_OPT_TOL_GRADIENT 1
GEOM_OPT_TOL_ENERGY 1
$end

--------------------------------------------------------------
 Atom   1: ( -0.0000010034, -0.0000000000,  0.4492861944)
         ->(  0.0000000000,  0.0000000000,  0.4492861944)
 Atom   3: (  0.8736502724,  0.0000000000, -0.1684820568)
         ->(  0.8736495198,  0.0000000000, -0.1684825890)
 IGroup =         2025
 ----------------------------------------------------
       Standard Nuclear Orientation (Angstroms)
    I     Atom         X            Y            Z
 ----------------------------------------------------
    1      C       0.000000     0.000000     0.449286
    2      O      -0.873650    -0.000000    -0.168483
    3      O       0.873650     0.000000    -0.168483
 ----------------------------------------------------
 Ignore =            0
 Molecular Point Group                 C2v   NOp =  4
 Largest Abelian Subgroup              C2v   NOp =  4
 Nuclear Repulsion Energy =    66.8602119273 hartrees
 There are       11 alpha and       11 beta electrons
 Requested basis set is 6-31G(d)
 There are 12 shells and 45 basis functions

Total QAlloc Memory Limit   2000 MB
Mega-Array Size        61 MB
MEM_STATIC part        62 MB
 A cutoff of  1.0D-11 yielded     77 shell pairs
 There are      1115 function pairs
 Smallest overlap matrix eigenvalue = 4.38E-03

  Scale SEOQF with 1.000000e+00/1.000000e+00/1.000000e+00

 Standard Electronic Orientation quadrupole field applied
 Nucleus-field energy     =     0.0000000026 hartrees
 Guess from superposition of atomic densities
 Warning:  Energy on first SCF cycle will be non-variational
 A restricted hybrid HF-DFT SCF calculation will be
 performed using Pulay DIIS extrapolation
 Exchange:     0.2000 Hartree-Fock + 0.0800 Slater + 0.7200 Becke88
 Correlation:  0.8100 LYP + 0.1900 VWN1RPA
 Using SG-1 standard quadrature grid
 SCF converges when DIIS error is below 1.0E-08
 ---------------------------------------
  Cycle       Energy         DIIS Error
 ---------------------------------------
    1    -189.5633230599      1.65E-01
    2    -188.1165148610      2.89E-02
    3    -187.3938539298      6.13E-02
    4    -188.2729975817      5.76E-03
    5    -188.2808340706      2.61E-03
    6    -188.2823031150      5.76E-04
    7    -188.2823676041      1.24E-04
    8    -188.2823706865      1.50E-05
    9    -188.2823707339      1.49E-06
   10    -188.2823707138      3.98E-07
   11    -188.2823707319      1.00E-08
   12    -188.2823707271      1.04E-08
   13    -188.2823707290      4.51E-09 Convergence criterion met
 ---------------------------------------
 SCF time:  CPU 1.27 s  wall 1.39 s
 SCF   energy in the final basis set = -188.2823707290
 Total energy in the final basis set = -188.2823707290
 Analysis of SCF Wavefunction
 
 --------------------------------------------------------------
             Orbital Energies (a.u.) and Symmetries
 --------------------------------------------------------------
 
 Alpha MOs, Restricted
 -- Occupied --                  
-19.179 -19.179 -10.354  -1.264  -1.078  -0.556  -0.556  -0.535
  1 B1    1 A1    2 A1    3 A1    2 B1    4 A1    1 B2    5 A1                 
 -0.495  -0.330  -0.268
  3 B1    1 A2    4 B1                                                         
 -- Virtual --                   
 -0.157   0.069   0.286   0.290   0.445   0.467   0.751   0.811
  6 A1    2 B2    5 B1    7 A1    3 B2    8 A1    6 B1    7 B1                 
  0.824   0.833   0.921   0.961   0.984   1.072   1.315   1.422
  9 A1   10 A1    2 A2    4 B2   11 A1    8 B1   12 A1    5 B2                 
  1.431   1.473   1.612   1.778   1.813   1.885   1.949   2.333
  9 B1    3 A2   13 A1   14 A1   10 B1    6 B2    4 A2   15 A1                 
  2.530   2.596   2.758   2.908   2.916   2.988   3.283   3.850
 11 B1    7 B2    5 A2   12 B1   16 A1   13 B1   17 A1   18 A1                 
  3.865   3.985
 14 B1   19 A1                                                                 
 
 Beta MOs, Restricted
 -- Occupied --                  
-19.179 -19.179 -10.354  -1.264  -1.078  -0.556  -0.556  -0.535
  1 B1    1 A1    2 A1    3 A1    2 B1    4 A1    1 B2    5 A1                 
 -0.495  -0.330  -0.268
  3 B1    1 A2    4 B1                                                         
 -- Virtual --                   
 -0.157   0.069   0.286   0.290   0.445   0.467   0.751   0.811
  6 A1    2 B2    5 B1    7 A1    3 B2    8 A1    6 B1    7 B1                 
  0.824   0.833   0.921   0.961   0.984   1.072   1.315   1.422
  9 A1   10 A1    2 A2    4 B2   11 A1    8 B1   12 A1    5 B2                 
  1.431   1.473   1.612   1.778   1.813   1.885   1.949   2.333
  9 B1    3 A2   13 A1   14 A1   10 B1    6 B2    4 A2   15 A1                 
  2.530   2.596   2.758   2.908   2.916   2.988   3.283   3.850
 11 B1    7 B2    5 A2   12 B1   16 A1   13 B1   17 A1   18 A1                 
  3.865   3.985
 14 B1   19 A1                                                                 
 --------------------------------------------------------------
 
          Ground-State Mulliken Net Atomic Charges

     Atom                 Charge (a.u.)
  ----------------------------------------
      1 C                     0.420971
      2 O                    -0.210486
      3 O                    -0.210486
  ----------------------------------------
  Sum of atomic charges =    -0.000000

 -----------------------------------------------------------------
                    Cartesian Multipole Moments
 -----------------------------------------------------------------
    Charge (ESU x 10^10)
                -0.0000
    Dipole Moment (Debye)
         X      -0.0000      Y      -0.0000      Z       1.7053
       Tot       1.7053
    Quadrupole Moments (Debye-Ang)
        XX     -18.4454     XY      -0.0000     YY     -14.0836
        XZ      -0.0000     YZ      -0.0000     ZZ     -12.9042
    Octapole Moments (Debye-Ang^2)
       XXX      -0.0000    XXY      -0.0000    XYY      -0.0000
       YYY      -0.0000    XXZ      -0.2035    XYZ       0.0000
       YYZ      -0.1129    XZZ      -0.0000    YZZ      -0.0000
       ZZZ      -0.1538
    Hexadecapole Moments (Debye-Ang^3)
      XXXX     -64.7754   XXXY      -0.0000   XXYY     -11.9659
      XYYY      -0.0000   YYYY      -9.8590   XXXZ      -0.0000
      XXYZ      -0.0000   XYYZ      -0.0000   YYYZ      -0.0000
      XXZZ     -12.8126   XYZZ      -0.0000   YYZZ      -4.2950
      XZZZ      -0.0000   YZZZ      -0.0000   ZZZZ     -15.6652
 -----------------------------------------------------------------
 Calculating analytic gradient of the SCF energy
 Gradient of Coulomb and Exchange Energy
            1           2           3
    1  -0.0000000  14.4645527 -14.4645527
    2   0.0000000  -0.0000000  -0.0000000
    3 -21.4728093  10.7364046  10.7364046
 Gradient of SCF Energy
            1           2           3
    1   0.0000000   0.5749016  -0.5749016
    2  -0.0000000   0.0000000   0.0000000
    3  -0.1211573   0.0605786   0.0605786
 Max gradient component =       5.749E-01
 RMS gradient           =       2.755E-01
 Gradient time:  CPU 0.50 s  wall 0.52 s
 Geometry Optimization Parameters
   NAtoms,    NIC,     NZ,  NCons,   NDum,   NFix, NCnnct, MaxDiis
        3      12       0       0       0       0       0       0


** GEOMETRY OPTIMIZATION IN DELOCALIZED INTERNAL COORDINATES **
   Searching for a Minimum

   Optimization Cycle:   1

                       Coordinates (Angstroms)
     ATOM              X           Y           Z
      1  C         0.000000    0.000000    0.449286
      2  O        -0.873650    0.000000   -0.168483
      3  O         0.873650    0.000000   -0.168483
   Point Group: c2v   Number of degrees of freedom:     2


   Energy is   -188.282370729


 Attempting to Generate Delocalized Internal Coordinates
 GETINT wrote B to file, NVib is            3
 calling HSSCONV
 HCONV 3*NATOMS:            9
 wrote HINT to file
  writing hessian 

 ** Taking Steepest Descent Step **
 Calculated Step too Large.  Step scaled by  0.625279
 Step Taken.  Stepsize is  0.300000

                             Maximum     Tolerance    Cnvgd?
         Gradient           0.466965      0.000001      NO
         Displacement       0.291984      0.000001      NO
         Energy change     *********      0.000000      NO


 New Cartesian Coordinates Obtained by Inverse Iteration

 Displacement from previous Coordinates is:  0.174617
 IGroup =         2025
 ----------------------------------------------------
       Standard Nuclear Orientation (Angstroms)
    I     Atom         X            Y            Z
 ----------------------------------------------------
    1      C       0.000000     0.000000     0.458087
    2      O      -0.938542     0.000000    -0.172883
    3      O       0.938542     0.000000    -0.172883
 ----------------------------------------------------
 Ignore =            0
 Molecular Point Group                 C2v   NOp =  4
 Largest Abelian Subgroup              C2v   NOp =  4
 Nuclear Repulsion Energy =    62.9625057896 hartrees
 There are       11 alpha and       11 beta electrons
 Applying Cartesian multipole field
    Component          Value
    ---------          -----
     (2,0,0)        1.00000E-10
     (0,2,0)        2.00000E-10
     (0,0,2)       -3.00000E-10
 Nucleus-field energy     =     0.0000000032 hartrees
 Requested basis set is 6-31G(d)
 There are 12 shells and 45 basis functions
 A cutoff of  1.0D-11 yielded     77 shell pairs
 There are      1115 function pairs
 Smallest overlap matrix eigenvalue = 4.99E-03
 Guess MOs from SCF MO coefficient file
Reading MOs from coefficient file
Reading MOs from coefficient file
 A restricted hybrid HF-DFT SCF calculation will be
 performed using Pulay DIIS extrapolation
 Exchange:     0.2000 Hartree-Fock + 0.0800 Slater + 0.7200 Becke88
 Correlation:  0.8100 LYP + 0.1900 VWN1RPA
 Using SG-1 standard quadrature grid
 SCF converges when DIIS error is below 1.0E-08
Geometry optimization detected.  Setting ReadMinima to 0
Setting SaveMinima to 0
 Inaccurate integrated density:
   Number of electrons =    22
   Numerical integral  =    21.933902415266
   Relative error      =    -0.3004435670 %
 ---------------------------------------
  Cycle       Energy         DIIS Error
 ---------------------------------------
    1    -188.2891054635      1.79E-02
    2    -188.3832401975      5.80E-03
    3    -188.3715183443      9.68E-03
    4    -188.3899825741      4.15E-04
    5    -188.3900144473      6.18E-05
    6    -188.3900153212      1.17E-05
    7    -188.3900153494      1.58E-06
    8    -188.3900153501      2.77E-07
    9    -188.3900153501      6.57E-08
   10    -188.3900153501      1.35E-07
   11    -188.3900153502      1.78E-08
   12    -188.3900153502      1.80E-08
   13    -188.3900153502      8.93E-10 Convergence criterion met
 ---------------------------------------
 SCF time:  CPU 1.32 s  wall 1.43 s
 SCF   energy in the final basis set = -188.3900153502
 Total energy in the final basis set = -188.3900153502
 Analysis of SCF Wavefunction
 
 --------------------------------------------------------------
             Orbital Energies (a.u.) and Symmetries
 --------------------------------------------------------------
 
 Alpha MOs, Restricted
 -- Occupied --                  
-19.199 -19.199 -10.367  -1.217  -1.064  -0.552  -0.527  -0.524
  1 B1    1 A1    2 A1    3 A1    2 B1    4 A1    1 B2    5 A1                 
 -0.497  -0.337  -0.291
  3 B1    1 A2    4 B1                                                         
 -- Virtual --                   
 -0.166   0.035   0.281   0.295   0.459   0.472   0.686   0.751
  6 A1    2 B2    5 B1    7 A1    3 B2    8 A1    6 B1    9 A1                 
  0.808   0.831   0.920   0.921   0.953   1.049   1.243   1.414
  7 B1   10 A1    2 A2   11 A1    4 B2    8 B1   12 A1    9 B1                 
  1.425   1.437   1.573   1.772   1.772   1.850   1.870   2.230
  5 B2    3 A2   13 A1   10 B1   14 A1    6 B2    4 A2   15 A1                 
  2.346   2.530   2.698   2.710   2.825   2.940   3.121   3.783
 11 B1    7 B2    5 A2   12 B1   16 A1   13 B1   17 A1   18 A1                 
  3.790   3.974
 14 B1   19 A1                                                                 
 
 Beta MOs, Restricted
 -- Occupied --                  
-19.199 -19.199 -10.367  -1.217  -1.064  -0.552  -0.527  -0.524
  1 B1    1 A1    2 A1    3 A1    2 B1    4 A1    1 B2    5 A1                 
 -0.497  -0.337  -0.291
  3 B1    1 A2    4 B1                                                         
 -- Virtual --                   
 -0.166   0.035   0.281   0.295   0.459   0.472   0.686   0.751
  6 A1    2 B2    5 B1    7 A1    3 B2    8 A1    6 B1    9 A1                 
  0.808   0.831   0.920   0.921   0.953   1.049   1.243   1.414
  7 B1   10 A1    2 A2   11 A1    4 B2    8 B1   12 A1    9 B1                 
  1.425   1.437   1.573   1.772   1.772   1.850   1.870   2.230
  5 B2    3 A2   13 A1   10 B1   14 A1    6 B2    4 A2   15 A1                 
  2.346   2.530   2.698   2.710   2.825   2.940   3.121   3.783
 11 B1    7 B2    5 A2   12 B1   16 A1   13 B1   17 A1   18 A1                 
  3.790   3.974
 14 B1   19 A1                                                                 
 --------------------------------------------------------------
 
          Ground-State Mulliken Net Atomic Charges

     Atom                 Charge (a.u.)
  ----------------------------------------
      1 C                     0.491467
      2 O                    -0.245733
      3 O                    -0.245733
  ----------------------------------------
  Sum of atomic charges =     0.000000

 -----------------------------------------------------------------
                    Cartesian Multipole Moments
 -----------------------------------------------------------------
    Charge (ESU x 10^10)
                 0.0000
    Dipole Moment (Debye)
         X       0.0000      Y       0.0000      Z       1.5801
       Tot       1.5801
    Quadrupole Moments (Debye-Ang)
        XX     -18.6146     XY       0.0000     YY     -14.3707
        XZ      -0.0000     YZ       0.0000     ZZ     -13.1744
    Octapole Moments (Debye-Ang^2)
       XXX       0.0000    XXY       0.0000    XYY       0.0000
       YYY       0.0000    XXZ      -0.3595    XYZ      -0.0000
       YYZ      -0.1669    XZZ       0.0000    YZZ       0.0000
       ZZZ      -0.4324
    Hexadecapole Moments (Debye-Ang^3)
      XXXX     -72.5167   XXXY       0.0000   XXYY     -13.2799
      XYYY       0.0000   YYYY     -10.2779   XXXZ      -0.0000
      XXYZ       0.0000   XYYZ      -0.0000   YYYZ       0.0000
      XXZZ     -14.0141   XYZZ       0.0000   YYZZ      -4.5014
      XZZZ      -0.0000   YZZZ       0.0000   ZZZZ     -16.5035
 -----------------------------------------------------------------
 Calculating analytic gradient of the SCF energy
 Gradient of Coulomb and Exchange Energy
            1           2           3
    1   0.0000001  14.8033331 -14.8033332
    2  -0.0000000   0.0000000   0.0000000
    3 -19.3871476   9.6935738   9.6935738
 Gradient of SCF Energy
            1           2           3
    1  -0.0000000   0.3140012  -0.3140011
    2   0.0000000  -0.0000000  -0.0000000
    3   0.0607518  -0.0303759  -0.0303759
 Max gradient component =       3.140E-01
 RMS gradient           =       1.501E-01
 Gradient time:  CPU 0.50 s  wall 0.51 s
 Geometry Optimization Parameters
   NAtoms,    NIC,     NZ,  NCons,   NDum,   NFix, NCnnct, MaxDiis
        3      12       0       0       0       0       0       0

 Cartesian Hessian Update
 Hessian Updated using BFGS Update


** GEOMETRY OPTIMIZATION IN DELOCALIZED INTERNAL COORDINATES **
   Searching for a Minimum

   Optimization Cycle:   2

                       Coordinates (Angstroms)
     ATOM              X           Y           Z
      1  C         0.000000    0.000000    0.458087
      2  O        -0.938542    0.000000   -0.172883
      3  O         0.938542    0.000000   -0.172883
   Point Group: c2v   Number of degrees of freedom:     2


   Energy is   -188.390015350

 GETINT wrote B to file, NVib is            2
 Hessian Updated using BFGS Update

  2 Hessian modes will be used to form the next step
  Hessian Eigenvalues:
     0.279560    0.995467

 Minimum Search - Taking Simple RFO Step
 Searching for Lamda that Minimizes Along All modes
 Value Taken    Lamda =  -0.14299412
 Calculated Step too Large.  Step scaled by  0.538970
 Step Taken.  Stepsize is  0.300000

                             Maximum     Tolerance    Cnvgd?
         Gradient           0.222804      0.000001      NO
         Displacement       0.244219      0.000001      NO
         Energy change     -0.107645      0.000000      NO


 New Cartesian Coordinates Obtained by Inverse Iteration

 Displacement from previous Coordinates is:  0.194331
 IGroup =         2025
 ----------------------------------------------------
       Standard Nuclear Orientation (Angstroms)
    I     Atom         X            Y            Z
 ----------------------------------------------------
    1      C       0.000000     0.000000     0.405432
    2      O      -0.995183     0.000000    -0.146556
    3      O       0.995183     0.000000    -0.146556
 ----------------------------------------------------
 Ignore =            0
 Molecular Point Group                 C2v   NOp =  4
 Largest Abelian Subgroup              C2v   NOp =  4
 Nuclear Repulsion Energy =    61.6556142781 hartrees
 There are       11 alpha and       11 beta electrons
 Applying Cartesian multipole field
    Component          Value
    ---------          -----
     (2,0,0)        1.00000E-10
     (0,2,0)        2.00000E-10
     (0,0,2)       -3.00000E-10
 Nucleus-field energy     =     0.0000000042 hartrees
 Requested basis set is 6-31G(d)
 There are 12 shells and 45 basis functions
 A cutoff of  1.0D-11 yielded     77 shell pairs
 There are      1115 function pairs
 Smallest overlap matrix eigenvalue = 4.99E-03
 Guess MOs from SCF MO coefficient file
Reading MOs from coefficient file
Reading MOs from coefficient file
 A restricted hybrid HF-DFT SCF calculation will be
 performed using Pulay DIIS extrapolation
 Exchange:     0.2000 Hartree-Fock + 0.0800 Slater + 0.7200 Becke88
 Correlation:  0.8100 LYP + 0.1900 VWN1RPA
 Using SG-1 standard quadrature grid
 SCF converges when DIIS error is below 1.0E-08
Geometry optimization detected.  Setting ReadMinima to 0
Setting SaveMinima to 0
 Inaccurate integrated density:
   Number of electrons =    22
   Numerical integral  =    22.039074751656
   Relative error      =     0.1776125075 %
 ---------------------------------------
  Cycle       Energy         DIIS Error
 ---------------------------------------
    1    -188.4564097958      1.13E-02
    2    -188.4548678583      2.94E-03
    3    -188.4531560707      4.32E-03
    4    -188.4565603708      6.04E-04
    5    -188.4566347524      7.84E-05
    6    -188.4566361774      1.27E-05
    7    -188.4566362174      1.48E-06
    8    -188.4566362179      2.66E-07
    9    -188.4566362179      2.46E-07
   10    -188.4566362179      3.69E-08
   11    -188.4566362178      1.09E-07
   12    -188.4566362179      2.72E-09 Convergence criterion met
 ---------------------------------------
 SCF time:  CPU 1.21 s  wall 1.32 s
 SCF   energy in the final basis set = -188.4566362179
 Total energy in the final basis set = -188.4566362179
 Analysis of SCF Wavefunction
 
 --------------------------------------------------------------
             Orbital Energies (a.u.) and Symmetries
 --------------------------------------------------------------
 
 Alpha MOs, Restricted
 -- Occupied --                  
-19.210 -19.210 -10.368  -1.199  -1.083  -0.553  -0.523  -0.522
  1 B1    1 A1    2 A1    3 A1    2 B1    4 A1    1 B2    5 A1                 
 -0.504  -0.347  -0.318
  3 B1    1 A2    4 B1                                                         
 -- Virtual --                   
 -0.141   0.037   0.298   0.302   0.463   0.466   0.703   0.716
  6 A1    2 B2    7 A1    5 B1    3 B2    8 A1    6 B1    9 A1                 
  0.823   0.824   0.911   0.911   0.971   1.019   1.248   1.423
  7 B1   10 A1    2 A2   11 A1    4 B2    8 B1   12 A1    5 B2                 
  1.434   1.455   1.592   1.736   1.787   1.808   1.873   2.146
  3 A2    9 B1   13 A1   10 B1   14 A1    4 A2    6 B2   11 B1                 
  2.236   2.489   2.748   2.749   2.847   2.941   3.108   3.785
 15 A1    7 B2    5 A2   12 B1   16 A1   13 B1   17 A1   18 A1                 
  3.818   4.030
 14 B1   19 A1                                                                 
 
 Beta MOs, Restricted
 -- Occupied --                  
-19.210 -19.210 -10.368  -1.199  -1.083  -0.553  -0.523  -0.522
  1 B1    1 A1    2 A1    3 A1    2 B1    4 A1    1 B2    5 A1                 
 -0.504  -0.347  -0.318
  3 B1    1 A2    4 B1                                                         
 -- Virtual --                   
 -0.141   0.037   0.298   0.302   0.463   0.466   0.703   0.716
  6 A1    2 B2    7 A1    5 B1    3 B2    8 A1    6 B1    9 A1                 
  0.823   0.824   0.911   0.911   0.971   1.019   1.248   1.423
  7 B1   10 A1    2 A2   11 A1    4 B2    8 B1   12 A1    5 B2                 
  1.434   1.455   1.592   1.736   1.787   1.808   1.873   2.146
  3 A2    9 B1   13 A1   10 B1   14 A1    4 A2    6 B2   11 B1                 
  2.236   2.489   2.748   2.749   2.847   2.941   3.108   3.785
 15 A1    7 B2    5 A2   12 B1   16 A1   13 B1   17 A1   18 A1                 
  3.818   4.030
 14 B1   19 A1                                                                 
 --------------------------------------------------------------
 
          Ground-State Mulliken Net Atomic Charges

     Atom                 Charge (a.u.)
  ----------------------------------------
      1 C                     0.538543
      2 O                    -0.269271
      3 O                    -0.269271
  ----------------------------------------
  Sum of atomic charges =    -0.000000

 -----------------------------------------------------------------
                    Cartesian Multipole Moments
 -----------------------------------------------------------------
    Charge (ESU x 10^10)
                -0.0000
    Dipole Moment (Debye)
         X       0.0000      Y       0.0000      Z       1.3687
       Tot       1.3687
    Quadrupole Moments (Debye-Ang)
        XX     -18.6207     XY      -0.0000     YY     -14.3832
        XZ      -0.0000     YZ       0.0000     ZZ     -13.4431
    Octapole Moments (Debye-Ang^2)
       XXX      -0.0000    XXY       0.0000    XYY      -0.0000
       YYY      -0.0000    XXZ      -0.5804    XYZ       0.0000
       YYZ      -0.2189    XZZ      -0.0000    YZZ       0.0000
       ZZZ      -0.6563
    Hexadecapole Moments (Debye-Ang^3)
      XXXX     -78.8652   XXXY      -0.0000   XXYY     -14.3333
      XYYY       0.0000   YYYY     -10.2889   XXXZ      -0.0000
      XXYZ       0.0000   XYYZ      -0.0000   YYYZ       0.0000
      XXZZ     -14.7913   XYZZ       0.0000   YYZZ      -4.2577
      XZZZ      -0.0000   YZZZ       0.0000   ZZZZ     -15.1407
 -----------------------------------------------------------------
 Calculating analytic gradient of the SCF energy
 Gradient of Coulomb and Exchange Energy
            1           2           3
    1   0.0000000  16.4190623 -16.4190623
    2   0.0000000  -0.0000000   0.0000000
    3 -16.6918108   8.3459054   8.3459054
 Gradient of SCF Energy
            1           2           3
    1   0.0000000   0.2169865  -0.2169865
    2   0.0000000  -0.0000000  -0.0000000
    3   0.0741837  -0.0370919  -0.0370919
 Max gradient component =       2.170E-01
 RMS gradient           =       1.067E-01
 Gradient time:  CPU 0.50 s  wall 0.51 s
 Geometry Optimization Parameters
   NAtoms,    NIC,     NZ,  NCons,   NDum,   NFix, NCnnct, MaxDiis
        3      12       0       0       0       0       0       0

 Cartesian Hessian Update
 Hessian Updated using BFGS Update


** GEOMETRY OPTIMIZATION IN DELOCALIZED INTERNAL COORDINATES **
   Searching for a Minimum

   Optimization Cycle:   3

                       Coordinates (Angstroms)
     ATOM              X           Y           Z
      1  C         0.000000    0.000000    0.405432
      2  O        -0.995183    0.000000   -0.146556
      3  O         0.995183    0.000000   -0.146556
   Point Group: c2v   Number of degrees of freedom:     2


   Energy is   -188.456636218

 GETINT wrote B to file, NVib is            2
 Hessian Updated using BFGS Update

  2 Hessian modes will be used to form the next step
  Hessian Eigenvalues:
     0.196234    0.984761

 Minimum Search - Taking Simple RFO Step
 Searching for Lamda that Minimizes Along All modes
 Value Taken    Lamda =  -0.11039742
 Calculated Step too Large.  Step scaled by  0.510328
 Step Taken.  Stepsize is  0.300000

                             Maximum     Tolerance    Cnvgd?
         Gradient           0.150553      0.000001      NO
         Displacement       0.252776      0.000001      NO
         Energy change     -0.066621      0.000000      NO


 New Cartesian Coordinates Obtained by Inverse Iteration

 Displacement from previous Coordinates is:  0.198558
 IGroup =         2025
 ----------------------------------------------------
       Standard Nuclear Orientation (Angstroms)
    I     Atom         X            Y            Z
 ----------------------------------------------------
    1      C       0.000000     0.000000     0.344741
    2      O      -1.047695     0.000000    -0.116210
    3      O       1.047695     0.000000    -0.116210
 ----------------------------------------------------
 Ignore =            0
 Molecular Point Group                 C2v   NOp =  4
 Largest Abelian Subgroup              C2v   NOp =  4
 Nuclear Repulsion Energy =    60.5454626982 hartrees
 There are       11 alpha and       11 beta electrons
 Applying Cartesian multipole field
    Component          Value
    ---------          -----
     (2,0,0)        1.00000E-10
     (0,2,0)        2.00000E-10
     (0,0,2)       -3.00000E-10
 Nucleus-field energy     =     0.0000000053 hartrees
 Requested basis set is 6-31G(d)
 There are 12 shells and 45 basis functions
 A cutoff of  1.0D-11 yielded     77 shell pairs
 There are      1115 function pairs
 Smallest overlap matrix eigenvalue = 5.08E-03
 Guess MOs from SCF MO coefficient file
Reading MOs from coefficient file
Reading MOs from coefficient file
 A restricted hybrid HF-DFT SCF calculation will be
 performed using Pulay DIIS extrapolation
 Exchange:     0.2000 Hartree-Fock + 0.0800 Slater + 0.7200 Becke88
 Correlation:  0.8100 LYP + 0.1900 VWN1RPA
 Using SG-1 standard quadrature grid
 SCF converges when DIIS error is below 1.0E-08
Geometry optimization detected.  Setting ReadMinima to 0
Setting SaveMinima to 0
 ---------------------------------------
  Cycle       Energy         DIIS Error
 ---------------------------------------
    1    -188.4941161991      1.13E-02
    2    -188.5050293174      1.50E-03
    3    -188.5046039832      2.25E-03
    4    -188.5055167538      3.32E-04
    5    -188.5055383413      6.22E-05
    6    -188.5055391992      9.52E-06
    7    -188.5055392226      1.10E-06
    8    -188.5055392230      2.06E-07
    9    -188.5055392230      1.31E-08
   10    -188.5055392231      1.81E-08
   11    -188.5055392230      8.90E-09 Convergence criterion met
 ---------------------------------------
 SCF time:  CPU 1.12 s  wall 1.21 s
 SCF   energy in the final basis set = -188.5055392230
 Total energy in the final basis set = -188.5055392230
 Analysis of SCF Wavefunction
 
 --------------------------------------------------------------
             Orbital Energies (a.u.) and Symmetries
 --------------------------------------------------------------
 
 Alpha MOs, Restricted
 -- Occupied --                  
-19.219 -19.219 -10.371  -1.186  -1.098  -0.555  -0.520  -0.520
  1 B1    1 A1    2 A1    3 A1    2 B1    4 A1    1 B2    5 A1                 
 -0.509  -0.356  -0.338
  3 B1    1 A2    4 B1                                                         
 -- Virtual --                   
 -0.113   0.038   0.285   0.323   0.464   0.466   0.673   0.719
  6 A1    2 B2    7 A1    5 B1    8 A1    3 B2    9 A1    6 B1                 
  0.806   0.848   0.900   0.936   0.986   0.992   1.294   1.416
 10 A1    7 B1    2 A2   11 A1    8 B1    4 B2   12 A1    5 B2                 
  1.430   1.515   1.570   1.711   1.767   1.822   1.896   1.950
  3 A2    9 B1   13 A1   10 B1    4 A2   14 A1    6 B2   11 B1                 
  2.235   2.427   2.805   2.813   2.885   2.937   3.099   3.790
 15 A1    7 B2    5 A2   12 B1   16 A1   13 B1   17 A1   18 A1                 
  3.887   4.109
 14 B1   19 A1                                                                 
 
 Beta MOs, Restricted
 -- Occupied --                  
-19.219 -19.219 -10.371  -1.186  -1.098  -0.555  -0.520  -0.520
  1 B1    1 A1    2 A1    3 A1    2 B1    4 A1    1 B2    5 A1                 
 -0.509  -0.356  -0.338
  3 B1    1 A2    4 B1                                                         
 -- Virtual --                   
 -0.113   0.038   0.285   0.323   0.464   0.466   0.673   0.719
  6 A1    2 B2    7 A1    5 B1    8 A1    3 B2    9 A1    6 B1                 
  0.806   0.848   0.900   0.936   0.986   0.992   1.294   1.416
 10 A1    7 B1    2 A2   11 A1    8 B1    4 B2   12 A1    5 B2                 
  1.430   1.515   1.570   1.711   1.767   1.822   1.896   1.950
  3 A2    9 B1   13 A1   10 B1    4 A2   14 A1    6 B2   11 B1                 
  2.235   2.427   2.805   2.813   2.885   2.937   3.099   3.790
 15 A1    7 B2    5 A2   12 B1   16 A1   13 B1   17 A1   18 A1                 
  3.887   4.109
 14 B1   19 A1                                                                 
 --------------------------------------------------------------
 
          Ground-State Mulliken Net Atomic Charges

     Atom                 Charge (a.u.)
  ----------------------------------------
      1 C                     0.593030
      2 O                    -0.296515
      3 O                    -0.296515
  ----------------------------------------
  Sum of atomic charges =    -0.000000

 -----------------------------------------------------------------
                    Cartesian Multipole Moments
 -----------------------------------------------------------------
    Charge (ESU x 10^10)
                 0.0000
    Dipole Moment (Debye)
         X      -0.0000      Y      -0.0000      Z       1.1483
       Tot       1.1483
    Quadrupole Moments (Debye-Ang)
        XX     -18.6552     XY      -0.0000     YY     -14.3929
        XZ       0.0000     YZ       0.0000     ZZ     -13.7146
    Octapole Moments (Debye-Ang^2)
       XXX      -0.0000    XXY      -0.0000    XYY      -0.0000
       YYY      -0.0000    XXZ      -0.7643    XYZ      -0.0000
       YYZ      -0.2748    XZZ      -0.0000    YZZ      -0.0000
       ZZZ      -0.8454
    Hexadecapole Moments (Debye-Ang^3)
      XXXX     -85.0312   XXXY      -0.0000   XXYY     -15.3773
      XYYY      -0.0000   YYYY     -10.2954   XXXZ       0.0000
      XXYZ       0.0000   XYYZ       0.0000   YYYZ       0.0000
      XXZZ     -15.6223   XYZZ      -0.0000   YYZZ      -4.0143
      XZZZ       0.0000   YZZZ       0.0000   ZZZZ     -13.7407
 -----------------------------------------------------------------
 Calculating analytic gradient of the SCF energy
 Gradient of Coulomb and Exchange Energy
            1           2           3
    1  -0.0000001  17.6690126 -17.6690125
    2  -0.0000000   0.0000000   0.0000000
    3 -13.6095423   6.8047712   6.8047712
 Gradient of SCF Energy
            1           2           3
    1   0.0000000   0.1444363  -0.1444363
    2  -0.0000000   0.0000000   0.0000000
    3   0.0781814  -0.0390907  -0.0390907
 Max gradient component =       1.444E-01
 RMS gradient           =       7.520E-02
 Gradient time:  CPU 0.50 s  wall 0.51 s
 Geometry Optimization Parameters
   NAtoms,    NIC,     NZ,  NCons,   NDum,   NFix, NCnnct, MaxDiis
        3      12       0       0       0       0       0       0

 Cartesian Hessian Update
 Hessian Updated using BFGS Update


** GEOMETRY OPTIMIZATION IN DELOCALIZED INTERNAL COORDINATES **
   Searching for a Minimum

   Optimization Cycle:   4

                       Coordinates (Angstroms)
     ATOM              X           Y           Z
      1  C         0.000000    0.000000    0.344741
      2  O        -1.047695    0.000000   -0.116210
      3  O         1.047695    0.000000   -0.116210
   Point Group: c2v   Number of degrees of freedom:     2


   Energy is   -188.505539223

 GETINT wrote B to file, NVib is            2
 Hessian Updated using BFGS Update

  2 Hessian modes will be used to form the next step
  Hessian Eigenvalues:
     0.146280    1.009046

 Minimum Search - Taking Simple RFO Step
 Searching for Lamda that Minimizes Along All modes
 Value Taken    Lamda =  -0.08212431
 Calculated Step too Large.  Step scaled by  0.504607
 Step Taken.  Stepsize is  0.300000

                             Maximum     Tolerance    Cnvgd?
         Gradient           0.103528      0.000001      NO
         Displacement       0.261616      0.000001      NO
         Energy change     -0.048903      0.000000      NO


 New Cartesian Coordinates Obtained by Inverse Iteration

 Displacement from previous Coordinates is:  0.204610
 IGroup =         2025
 ----------------------------------------------------
       Standard Nuclear Orientation (Angstroms)
    I     Atom         X            Y            Z
 ----------------------------------------------------
    1      C       0.000000     0.000000     0.275125
    2      O      -1.094886     0.000000    -0.081402
    3      O       1.094886     0.000000    -0.081402
 ----------------------------------------------------
 Ignore =            0
 Molecular Point Group                 C2v   NOp =  4
 Largest Abelian Subgroup              C2v   NOp =  4
 Nuclear Repulsion Energy =    59.5844857273 hartrees
 There are       11 alpha and       11 beta electrons
 Applying Cartesian multipole field
    Component          Value
    ---------          -----
     (2,0,0)        1.00000E-10
     (0,2,0)        2.00000E-10
     (0,0,2)       -3.00000E-10
 Nucleus-field energy     =     0.0000000062 hartrees
 Requested basis set is 6-31G(d)
 There are 12 shells and 45 basis functions
 A cutoff of  1.0D-11 yielded     77 shell pairs
 There are      1115 function pairs
 Smallest overlap matrix eigenvalue = 5.08E-03
 Guess MOs from SCF MO coefficient file
Reading MOs from coefficient file
Reading MOs from coefficient file
 A restricted hybrid HF-DFT SCF calculation will be
 performed using Pulay DIIS extrapolation
 Exchange:     0.2000 Hartree-Fock + 0.0800 Slater + 0.7200 Becke88
 Correlation:  0.8100 LYP + 0.1900 VWN1RPA
 Using SG-1 standard quadrature grid
 SCF converges when DIIS error is below 1.0E-08
Geometry optimization detected.  Setting ReadMinima to 0
Setting SaveMinima to 0
 Inaccurate integrated density:
   Number of electrons =    22
   Numerical integral  =    21.976442471928
   Relative error      =    -0.1070796731 %
 ---------------------------------------
  Cycle       Energy         DIIS Error
 ---------------------------------------
    1    -188.5170593905      1.18E-02
    2    -188.5409520525      7.16E-04
    3    -188.5409689413      9.19E-04
    4    -188.5411224392      2.08E-04
    5    -188.5411302521      2.58E-05
    6    -188.5411303886      2.87E-06
    7    -188.5411303907      4.72E-07
    8    -188.5411303908      1.17E-07
    9    -188.5411303908      1.36E-07
   10    -188.5411303909      2.65E-09 Convergence criterion met
 ---------------------------------------
 SCF time:  CPU 1.03 s  wall 1.11 s
 SCF   energy in the final basis set = -188.5411303909
 Total energy in the final basis set = -188.5411303909
 Analysis of SCF Wavefunction
 
 --------------------------------------------------------------
             Orbital Energies (a.u.) and Symmetries
 --------------------------------------------------------------
 
 Alpha MOs, Restricted
 -- Occupied --                  
-19.226 -19.226 -10.376  -1.176  -1.109  -0.557  -0.518  -0.518
  1 B1    1 A1    2 A1    3 A1    2 B1    4 A1    5 A1    1 B2                 
 -0.513  -0.362  -0.353
  3 B1    1 A2    4 B1                                                         
 -- Virtual --                   
 -0.080   0.037   0.245   0.341   0.466   0.469   0.634   0.730
  6 A1    2 B2    7 A1    5 B1    8 A1    3 B2    9 A1    6 B1                 
  0.795   0.882   0.890   0.959   0.972   1.013   1.344   1.407
 10 A1    7 B1    2 A2    8 B1   11 A1    4 B2   12 A1    5 B2                 
  1.424   1.514   1.594   1.676   1.743   1.791   1.877   1.924
  3 A2   13 A1    9 B1   10 B1    4 A2   11 B1   14 A1    6 B2                 
  2.220   2.344   2.864   2.872   2.897   2.938   3.082   3.799
 15 A1    7 B2    5 A2   12 B1   16 A1   13 B1   17 A1   18 A1                 
  4.017   4.203
 14 B1   19 A1                                                                 
 
 Beta MOs, Restricted
 -- Occupied --                  
-19.226 -19.226 -10.376  -1.176  -1.109  -0.557  -0.518  -0.518
  1 B1    1 A1    2 A1    3 A1    2 B1    4 A1    5 A1    1 B2                 
 -0.513  -0.362  -0.353
  3 B1    1 A2    4 B1                                                         
 -- Virtual --                   
 -0.080   0.037   0.245   0.341   0.466   0.469   0.634   0.730
  6 A1    2 B2    7 A1    5 B1    8 A1    3 B2    9 A1    6 B1                 
  0.795   0.882   0.890   0.959   0.972   1.013   1.344   1.407
 10 A1    7 B1    2 A2    8 B1   11 A1    4 B2   12 A1    5 B2                 
  1.424   1.514   1.594   1.676   1.743   1.791   1.877   1.924
  3 A2   13 A1    9 B1   10 B1    4 A2   11 B1   14 A1    6 B2                 
  2.220   2.344   2.864   2.872   2.897   2.938   3.082   3.799
 15 A1    7 B2    5 A2   12 B1   16 A1   13 B1   17 A1   18 A1                 
  4.017   4.203
 14 B1   19 A1                                                                 
 --------------------------------------------------------------
 
          Ground-State Mulliken Net Atomic Charges

     Atom                 Charge (a.u.)
  ----------------------------------------
      1 C                     0.644875
      2 O                    -0.322437
      3 O                    -0.322437
  ----------------------------------------
  Sum of atomic charges =     0.000000

 -----------------------------------------------------------------
                    Cartesian Multipole Moments
 -----------------------------------------------------------------
    Charge (ESU x 10^10)
                 0.0000
    Dipole Moment (Debye)
         X      -0.0000      Y      -0.0000      Z       0.8973
       Tot       0.8973
    Quadrupole Moments (Debye-Ang)
        XX     -18.7189     XY      -0.0000     YY     -14.4051
        XZ       0.0000     YZ       0.0000     ZZ     -13.9793
    Octapole Moments (Debye-Ang^2)
       XXX      -0.0000    XXY      -0.0000    XYY      -0.0000
       YYY      -0.0000    XXZ      -0.8822    XYZ      -0.0000
       YYZ      -0.3396    XZZ      -0.0000    YZZ      -0.0000
       ZZZ      -1.0329
    Hexadecapole Moments (Debye-Ang^3)
      XXXX     -90.8107   XXXY      -0.0000   XXYY     -16.3743
      XYYY      -0.0000   YYYY     -10.3061   XXXZ       0.0000
      XXYZ       0.0000   XYYZ       0.0000   YYYZ       0.0000
      XXZZ     -16.4810   XYZZ      -0.0000   YYZZ      -3.7902
      XZZZ       0.0000   YZZZ       0.0000   ZZZZ     -12.4185
 -----------------------------------------------------------------
 Calculating analytic gradient of the SCF energy
 Gradient of Coulomb and Exchange Energy
            1           2           3
    1  -0.0000003  18.5717472 -18.5717469
    2   0.0000000  -0.0000000  -0.0000000
    3 -10.0718006   5.0359003   5.0359003
 Gradient of SCF Energy
            1           2           3
    1   0.0000000   0.0874840  -0.0874840
    2  -0.0000000   0.0000000  -0.0000000
    3   0.0720486  -0.0360243  -0.0360243
 Max gradient component =       8.748E-02
 RMS gradient           =       5.066E-02
 Gradient time:  CPU 0.50 s  wall 0.51 s
 Geometry Optimization Parameters
   NAtoms,    NIC,     NZ,  NCons,   NDum,   NFix, NCnnct, MaxDiis
        3      12       0       0       0       0       0       0

 Cartesian Hessian Update
 Hessian Updated using BFGS Update


** GEOMETRY OPTIMIZATION IN DELOCALIZED INTERNAL COORDINATES **
   Searching for a Minimum

   Optimization Cycle:   5

                       Coordinates (Angstroms)
     ATOM              X           Y           Z
      1  C         0.000000    0.000000    0.275125
      2  O        -1.094886    0.000000   -0.081402
      3  O         1.094886    0.000000   -0.081402
   Point Group: c2v   Number of degrees of freedom:     2


   Energy is   -188.541130391

 GETINT wrote B to file, NVib is            2
 Hessian Updated using BFGS Update

  2 Hessian modes will be used to form the next step
  Hessian Eigenvalues:
     0.121355    1.040698

 Minimum Search - Taking Simple RFO Step
 Searching for Lamda that Minimizes Along All modes
 Value Taken    Lamda =  -0.05507168
 Calculated Step too Large.  Step scaled by  0.538317
 Step Taken.  Stepsize is  0.300000

                             Maximum     Tolerance    Cnvgd?
         Gradient           0.081784      0.000001      NO
         Displacement       0.269588      0.000001      NO
         Energy change     -0.035591      0.000000      NO


 New Cartesian Coordinates Obtained by Inverse Iteration

 Displacement from previous Coordinates is:  0.213349
 IGroup =         2025
 ----------------------------------------------------
       Standard Nuclear Orientation (Angstroms)
    I     Atom         X            Y            Z
 ----------------------------------------------------
    1      C       0.000000     0.000000     0.195839
    2      O      -1.135609     0.000000    -0.041759
    3      O       1.135609     0.000000    -0.041759
 ----------------------------------------------------
 Ignore =            0
 Molecular Point Group                 C2v   NOp =  4
 Largest Abelian Subgroup              C2v   NOp =  4
 Nuclear Repulsion Energy =    58.6980155121 hartrees
 There are       11 alpha and       11 beta electrons
 Applying Cartesian multipole field
    Component          Value
    ---------          -----
     (2,0,0)        1.00000E-10
     (0,2,0)        2.00000E-10
     (0,0,2)       -3.00000E-10
 Nucleus-field energy     =     0.0000000071 hartrees
 Requested basis set is 6-31G(d)
 There are 12 shells and 45 basis functions
 A cutoff of  1.0D-11 yielded     77 shell pairs
 There are      1115 function pairs
 Smallest overlap matrix eigenvalue = 3.87E-03
 Guess MOs from SCF MO coefficient file
Reading MOs from coefficient file
Reading MOs from coefficient file
 A restricted hybrid HF-DFT SCF calculation will be
 performed using Pulay DIIS extrapolation
 Exchange:     0.2000 Hartree-Fock + 0.0800 Slater + 0.7200 Becke88
 Correlation:  0.8100 LYP + 0.1900 VWN1RPA
 Using SG-1 standard quadrature grid
 SCF converges when DIIS error is below 1.0E-08
Geometry optimization detected.  Setting ReadMinima to 0
Setting SaveMinima to 0
 Inaccurate integrated density:
   Number of electrons =    22
   Numerical integral  =    21.943887986357
   Relative error      =    -0.2550546075 %
 ---------------------------------------
  Cycle       Energy         DIIS Error
 ---------------------------------------
    1    -188.5243118737      1.27E-02
    2    -188.5651342052      8.92E-04
    3    -188.5652960682      6.76E-04
    4    -188.5653777903      3.47E-04
    5    -188.5653981327      8.48E-05
    6    -188.5653993810      3.61E-06
    7    -188.5653993845      7.76E-07
    8    -188.5653993846      2.09E-07
    9    -188.5653993847      2.41E-07
   10    -188.5653993848      1.02E-08
   11    -188.5653993848      2.43E-08
   12    -188.5653993847      1.85E-09 Convergence criterion met
 ---------------------------------------
 SCF time:  CPU 1.20 s  wall 1.30 s
 SCF   energy in the final basis set = -188.5653993847
 Total energy in the final basis set = -188.5653993847
 Analysis of SCF Wavefunction
 
 --------------------------------------------------------------
             Orbital Energies (a.u.) and Symmetries
 --------------------------------------------------------------
 
 Alpha MOs, Restricted
 -- Occupied --                  
-19.232 -19.232 -10.380  -1.168  -1.116  -0.560  -0.515  -0.515
  1 A1    1 B1    2 A1    3 A1    2 B1    4 A1    5 A1    1 B2                 
 -0.515  -0.367  -0.364
  3 B1    1 A2    4 B1                                                         
 -- Virtual --                   
 -0.041   0.034   0.183   0.356   0.469   0.471   0.605   0.734
  6 A1    2 B2    7 A1    5 B1    8 A1    3 B2    9 A1    6 B1                 
  0.787   0.881   0.892   0.971   1.008   1.029   1.375   1.399
 10 A1    2 A2    7 B1    8 B1   11 A1    4 B2   12 A1    5 B2                 
  1.415   1.447   1.555   1.703   1.731   1.735   1.940   1.960
  3 A2   13 A1    9 B1   10 B1    4 A2   11 B1   14 A1    6 B2                 
  2.186   2.247   2.834   2.891   2.914   2.958   3.062   3.782
 15 A1    7 B2   16 A1   12 B1    5 A2   13 B1   17 A1   18 A1                 
  4.204   4.299
 14 B1   19 A1                                                                 
 
 Beta MOs, Restricted
 -- Occupied --                  
-19.232 -19.232 -10.380  -1.168  -1.116  -0.560  -0.515  -0.515
  1 A1    1 B1    2 A1    3 A1    2 B1    4 A1    5 A1    1 B2                 
 -0.515  -0.367  -0.364
  3 B1    1 A2    4 B1                                                         
 -- Virtual --                   
 -0.041   0.034   0.183   0.356   0.469   0.471   0.605   0.734
  6 A1    2 B2    7 A1    5 B1    8 A1    3 B2    9 A1    6 B1                 
  0.787   0.881   0.892   0.971   1.008   1.029   1.375   1.399
 10 A1    2 A2    7 B1    8 B1   11 A1    4 B2   12 A1    5 B2                 
  1.415   1.447   1.555   1.703   1.731   1.735   1.940   1.960
  3 A2   13 A1    9 B1   10 B1    4 A2   11 B1   14 A1    6 B2                 
  2.186   2.247   2.834   2.891   2.914   2.958   3.062   3.782
 15 A1    7 B2   16 A1   12 B1    5 A2   13 B1   17 A1   18 A1                 
  4.204   4.299
 14 B1   19 A1                                                                 
 --------------------------------------------------------------
 
          Ground-State Mulliken Net Atomic Charges

     Atom                 Charge (a.u.)
  ----------------------------------------
      1 C                     0.685884
      2 O                    -0.342942
      3 O                    -0.342942
  ----------------------------------------
  Sum of atomic charges =    -0.000000

 -----------------------------------------------------------------
                    Cartesian Multipole Moments
 -----------------------------------------------------------------
    Charge (ESU x 10^10)
                -0.0000
    Dipole Moment (Debye)
         X      -0.0000      Y      -0.0000      Z       0.6006
       Tot       0.6006
    Quadrupole Moments (Debye-Ang)
        XX     -18.8096     XY       0.0000     YY     -14.4279
        XZ       0.0000     YZ      -0.0000     ZZ     -14.2225
    Octapole Moments (Debye-Ang^2)
       XXX      -0.0000    XXY       0.0000    XYY       0.0000
       YYY      -0.0000    XXZ      -0.9112    XYZ       0.0000
       YYZ      -0.4136    XZZ       0.0000    YZZ      -0.0000
       ZZZ      -1.2419
    Hexadecapole Moments (Debye-Ang^3)
      XXXX     -96.0276   XXXY       0.0000   XXYY     -17.2871
      XYYY       0.0000   YYYY     -10.3323   XXXZ       0.0000
      XXYZ       0.0000   XYYZ       0.0000   YYYZ      -0.0000
      XXZZ     -17.3299   XYZZ       0.0000   YYZZ      -3.6109
      XZZZ       0.0000   YZZZ      -0.0000   ZZZZ     -11.3298
 -----------------------------------------------------------------
 Calculating analytic gradient of the SCF energy
 Gradient of Coulomb and Exchange Energy
            1           2           3
    1  -0.0000000  19.0798253 -19.0798253
    2  -0.0000000  -0.0000000   0.0000000
    3  -6.2326751   3.1163376   3.1163376
 Gradient of SCF Energy
            1           2           3
    1   0.0000000   0.0392380  -0.0392380
    2   0.0000000  -0.0000000  -0.0000000
    3   0.0553997  -0.0276998  -0.0276998
 Max gradient component =       5.540E-02
 RMS gradient           =       2.922E-02
 Gradient time:  CPU 0.50 s  wall 0.51 s
 Geometry Optimization Parameters
   NAtoms,    NIC,     NZ,  NCons,   NDum,   NFix, NCnnct, MaxDiis
        3      12       0       0       0       0       0       0

 Cartesian Hessian Update
 Hessian Updated using BFGS Update


** GEOMETRY OPTIMIZATION IN DELOCALIZED INTERNAL COORDINATES **
   Searching for a Minimum

   Optimization Cycle:   6

                       Coordinates (Angstroms)
     ATOM              X           Y           Z
      1  C         0.000000    0.000000    0.195839
      2  O        -1.135609    0.000000   -0.041759
      3  O         1.135609    0.000000   -0.041759
   Point Group: c2v   Number of degrees of freedom:     2


   Energy is   -188.565399385

 GETINT wrote B to file, NVib is            2
 Hessian Updated using BFGS Update

  2 Hessian modes will be used to form the next step
  Hessian Eigenvalues:
     0.116878    1.071190

 Minimum Search - Taking Simple RFO Step
 Searching for Lamda that Minimizes Along All modes
 Value Taken    Lamda =  -0.02715483
 Calculated Step too Large.  Step scaled by  0.690935
 Step Taken.  Stepsize is  0.300000

                             Maximum     Tolerance    Cnvgd?
         Gradient           0.057538      0.000001      NO
         Displacement       0.277589      0.000001      NO
         Energy change     -0.024269      0.000000      NO


 New Cartesian Coordinates Obtained by Inverse Iteration

 Displacement from previous Coordinates is:  0.226916
 IGroup =         2025
 ----------------------------------------------------
       Standard Nuclear Orientation (Angstroms)
    I     Atom         X            Y            Z
 ----------------------------------------------------
    1      C       0.000000     0.000000     0.105195
    2      O      -1.167970     0.000000     0.003563
    3      O       1.167970     0.000000     0.003563
 ----------------------------------------------------
 Ignore =            0
 Molecular Point Group                 C2v   NOp =  4
 Largest Abelian Subgroup              C2v   NOp =  4
 Nuclear Repulsion Energy =    57.8297750936 hartrees
 There are       11 alpha and       11 beta electrons
 Applying Cartesian multipole field
    Component          Value
    ---------          -----
     (2,0,0)        1.00000E-10
     (0,2,0)        2.00000E-10
     (0,0,2)       -3.00000E-10
 Nucleus-field energy     =     0.0000000077 hartrees
 Requested basis set is 6-31G(d)
 There are 12 shells and 45 basis functions
 A cutoff of  1.0D-11 yielded     77 shell pairs
 There are      1115 function pairs
 Smallest overlap matrix eigenvalue = 3.03E-03
 Guess MOs from SCF MO coefficient file
Reading MOs from coefficient file
Reading MOs from coefficient file
 A restricted hybrid HF-DFT SCF calculation will be
 performed using Pulay DIIS extrapolation
 Exchange:     0.2000 Hartree-Fock + 0.0800 Slater + 0.7200 Becke88
 Correlation:  0.8100 LYP + 0.1900 VWN1RPA
 Using SG-1 standard quadrature grid
 SCF converges when DIIS error is below 1.0E-08
Geometry optimization detected.  Setting ReadMinima to 0
Setting SaveMinima to 0
 Inaccurate integrated density:
   Number of electrons =    22
   Numerical integral  =    21.910716623689
   Relative error      =    -0.4058335287 %
 ---------------------------------------
  Cycle       Energy         DIIS Error
 ---------------------------------------
    1    -188.5167838143      1.39E-02
    2    -188.5777195164      1.60E-03
    3    -188.5780701967      1.23E-03
    4    -188.5783615540      5.43E-04
    5    -188.5784120768      8.06E-05
    6    -188.5784132285      3.36E-06
    7    -188.5784132315      6.58E-07
    8    -188.5784132319      1.52E-07
    9    -188.5784132321      1.69E-08
   10    -188.5784132322      4.16E-08
   11    -188.5784132321      2.75E-09 Convergence criterion met
 ---------------------------------------
 SCF time:  CPU 1.11 s  wall 1.20 s
 SCF   energy in the final basis set = -188.5784132321
 Total energy in the final basis set = -188.5784132321
 Analysis of SCF Wavefunction
 
 --------------------------------------------------------------
             Orbital Energies (a.u.) and Symmetries
 --------------------------------------------------------------
 
 Alpha MOs, Restricted
 -- Occupied --                  
-19.237 -19.237 -10.386  -1.160  -1.117  -0.563  -0.516  -0.512
  1 A1    1 B1    2 A1    3 A1    2 B1    4 A1    3 B1    5 A1                 
 -0.512  -0.369  -0.369
  1 B2    1 A2    4 B1                                                         
 -- Virtual --                   
  0.003   0.027   0.110   0.364   0.473   0.473   0.584   0.731
  6 A1    2 B2    7 A1    5 B1    8 A1    3 B2    9 A1    6 B1                 
  0.782   0.875   0.878   1.013   1.034   1.038   1.382   1.397
 10 A1    2 A2    7 B1    8 B1   11 A1    4 B2   12 A1    5 B2                 
  1.399   1.404   1.433   1.727   1.727   1.803   1.999   2.001
 13 A1    3 A2    9 B1    4 A2   10 B1   11 B1   14 A1    6 B2                 
  2.133   2.146   2.729   2.898   2.938   2.953   3.043   3.743
 15 A1    7 B2   16 A1   12 B1    5 A2   13 B1   17 A1   18 A1                 
  4.361   4.388
 19 A1   14 B1                                                                 
 
 Beta MOs, Restricted
 -- Occupied --                  
-19.237 -19.237 -10.386  -1.160  -1.117  -0.563  -0.516  -0.512
  1 A1    1 B1    2 A1    3 A1    2 B1    4 A1    3 B1    5 A1                 
 -0.512  -0.369  -0.369
  1 B2    1 A2    4 B1                                                         
 -- Virtual --                   
  0.003   0.027   0.110   0.364   0.473   0.473   0.584   0.731
  6 A1    2 B2    7 A1    5 B1    8 A1    3 B2    9 A1    6 B1                 
  0.782   0.875   0.878   1.013   1.034   1.038   1.382   1.397
 10 A1    2 A2    7 B1    8 B1   11 A1    4 B2   12 A1    5 B2                 
  1.399   1.404   1.433   1.727   1.727   1.803   1.999   2.001
 13 A1    3 A2    9 B1    4 A2   10 B1   11 B1   14 A1    6 B2                 
  2.133   2.146   2.729   2.898   2.938   2.953   3.043   3.743
 15 A1    7 B2   16 A1   12 B1    5 A2   13 B1   17 A1   18 A1                 
  4.361   4.388
 19 A1   14 B1                                                                 
 --------------------------------------------------------------
 
          Ground-State Mulliken Net Atomic Charges

     Atom                 Charge (a.u.)
  ----------------------------------------
      1 C                     0.714221
      2 O                    -0.357111
      3 O                    -0.357111
  ----------------------------------------
  Sum of atomic charges =     0.000000

 -----------------------------------------------------------------
                    Cartesian Multipole Moments
 -----------------------------------------------------------------
    Charge (ESU x 10^10)
                 0.0000
    Dipole Moment (Debye)
         X       0.0000      Y       0.0000      Z       0.2546
       Tot       0.2546
    Quadrupole Moments (Debye-Ang)
        XX     -18.9089     XY      -0.0000     YY     -14.4702
        XZ      -0.0000     YZ      -0.0000     ZZ     -14.4218
    Octapole Moments (Debye-Ang^2)
       XXX       0.0000    XXY       0.0000    XYY       0.0000
       YYY       0.0000    XXZ      -0.8294    XYZ       0.0000
       YYZ      -0.4915    XZZ       0.0000    YZZ       0.0000
       ZZZ      -1.4722
    Hexadecapole Moments (Debye-Ang^3)
      XXXX    -100.3867   XXXY      -0.0000   XXYY     -18.0614
      XYYY      -0.0000   YYYY     -10.3878   XXXZ      -0.0000
      XXYZ       0.0000   XYYZ      -0.0000   YYYZ      -0.0000
      XXZZ     -18.0922   XYZZ      -0.0000   YYZZ      -3.5079
      XZZZ      -0.0000   YZZZ      -0.0000   ZZZZ     -10.6592
 -----------------------------------------------------------------
 Calculating analytic gradient of the SCF energy
 Gradient of Coulomb and Exchange Energy
            1           2           3
    1   0.0000000  19.1467309 -19.1467309
    2  -0.0000000   0.0000000   0.0000000
    3  -2.4227521   1.2113761   1.2113761
 Gradient of SCF Energy
            1           2           3
    1  -0.0000000  -0.0036112   0.0036112
    2   0.0000000  -0.0000000  -0.0000000
    3   0.0268653  -0.0134326  -0.0134326
 Max gradient component =       2.687E-02
 RMS gradient           =       1.110E-02
 Gradient time:  CPU 0.50 s  wall 0.51 s
 Geometry Optimization Parameters
   NAtoms,    NIC,     NZ,  NCons,   NDum,   NFix, NCnnct, MaxDiis
        3      12       0       0       0       0       0       0

 Cartesian Hessian Update
 Hessian Updated using BFGS Update


** GEOMETRY OPTIMIZATION IN DELOCALIZED INTERNAL COORDINATES **
   Searching for a Minimum

   Optimization Cycle:   7

                       Coordinates (Angstroms)
     ATOM              X           Y           Z
      1  C         0.000000    0.000000    0.105195
      2  O        -1.167970    0.000000    0.003563
      3  O         1.167970    0.000000    0.003563
   Point Group: c2v   Number of degrees of freedom:     2


   Energy is   -188.578413232

 GETINT wrote B to file, NVib is            2
 Hessian Updated using BFGS Update

  2 Hessian modes will be used to form the next step
  Hessian Eigenvalues:
     0.129301    1.095503

 Minimum Search - Taking Simple RFO Step
 Searching for Lamda that Minimizes Along All modes
 Value Taken    Lamda =  -0.00436358
 Step Taken.  Stepsize is  0.177497

                             Maximum     Tolerance    Cnvgd?
         Gradient           0.026884      0.000001      NO
         Displacement       0.171394      0.000001      NO
         Energy change     -0.013014      0.000000      NO


 New Cartesian Coordinates Obtained by Inverse Iteration

 Displacement from previous Coordinates is:  0.145772
 IGroup =         2025
 ----------------------------------------------------
       Standard Nuclear Orientation (Angstroms)
    I     Atom         X            Y            Z
 ----------------------------------------------------
    1      C       0.000000     0.000000     0.043672
    2      O      -1.179649     0.000000     0.034325
    3      O       1.179649     0.000000     0.034325
 ----------------------------------------------------
 Ignore =            0
 Molecular Point Group                 C2v   NOp =  4
 Largest Abelian Subgroup              C2v   NOp =  4
 Nuclear Repulsion Energy =    57.4179780552 hartrees
 There are       11 alpha and       11 beta electrons
 Applying Cartesian multipole field
    Component          Value
    ---------          -----
     (2,0,0)        1.00000E-10
     (0,2,0)        2.00000E-10
     (0,0,2)       -3.00000E-10
 Nucleus-field energy     =     0.0000000079 hartrees
 Requested basis set is 6-31G(d)
 There are 12 shells and 45 basis functions
 A cutoff of  1.0D-11 yielded     77 shell pairs
 There are      1115 function pairs
 Smallest overlap matrix eigenvalue = 2.85E-03
 Guess MOs from SCF MO coefficient file
Reading MOs from coefficient file
Reading MOs from coefficient file
 A restricted hybrid HF-DFT SCF calculation will be
 performed using Pulay DIIS extrapolation
 Exchange:     0.2000 Hartree-Fock + 0.0800 Slater + 0.7200 Becke88
 Correlation:  0.8100 LYP + 0.1900 VWN1RPA
 Using SG-1 standard quadrature grid
 SCF converges when DIIS error is below 1.0E-08
Geometry optimization detected.  Setting ReadMinima to 0
Setting SaveMinima to 0
 Inaccurate integrated density:
   Number of electrons =    22
   Numerical integral  =    21.953507507418
   Relative error      =    -0.2113295117 %
 ---------------------------------------
  Cycle       Energy         DIIS Error
 ---------------------------------------
    1    -188.5486416190      9.12E-03
    2    -188.5802268452      9.65E-04
    3    -188.5803324093      8.32E-04
    4    -188.5804592959      3.82E-04
    5    -188.5804844059      3.94E-05
    6    -188.5804846857      2.52E-06
    7    -188.5804846877      3.84E-07
    8    -188.5804846878      8.04E-08
    9    -188.5804846876      3.42E-08
   10    -188.5804846874      9.18E-08
   11    -188.5804846873      1.42E-09 Convergence criterion met
 ---------------------------------------
 SCF time:  CPU 1.11 s  wall 1.20 s
 SCF   energy in the final basis set = -188.5804846873
 Total energy in the final basis set = -188.5804846873
 Analysis of SCF Wavefunction
 
 --------------------------------------------------------------
             Orbital Energies (a.u.) and Symmetries
 --------------------------------------------------------------
 
 Alpha MOs, Restricted
 -- Occupied --                  
-19.239 -19.239 -10.389  -1.156  -1.115  -0.564  -0.516  -0.509
  1 A1    1 B1    2 A1    3 A1    2 B1    4 A1    3 B1    5 A1                 
 -0.509  -0.370  -0.370
  1 B2    1 A2    4 B1                                                         
 -- Virtual --                   
  0.022   0.023   0.079   0.366   0.474   0.474   0.577   0.726
  6 A1    2 B2    7 A1    5 B1    8 A1    3 B2    9 A1    6 B1                 
  0.781   0.874   0.874   1.018   1.039   1.039   1.372   1.398
 10 A1    2 A2    7 B1    8 B1   11 A1    4 B2   12 A1   13 A1                 
  1.398   1.398   1.398   1.727   1.727   1.832   2.018   2.018
  5 B2    3 A2    9 B1    4 A2   10 B1   11 B1   14 A1    6 B2                 
  2.106   2.106   2.686   2.902   2.935   2.936   3.032   3.727
 15 A1    7 B2   16 A1   12 B1    5 A2   13 B1   17 A1   18 A1                 
  4.366   4.438
 19 A1   14 B1                                                                 
 
 Beta MOs, Restricted
 -- Occupied --                  
-19.239 -19.239 -10.389  -1.156  -1.115  -0.564  -0.516  -0.509
  1 A1    1 B1    2 A1    3 A1    2 B1    4 A1    3 B1    5 A1                 
 -0.509  -0.370  -0.370
  1 B2    1 A2    4 B1                                                         
 -- Virtual --                   
  0.022   0.023   0.079   0.366   0.474   0.474   0.577   0.726
  6 A1    2 B2    7 A1    5 B1    8 A1    3 B2    9 A1    6 B1                 
  0.781   0.874   0.874   1.018   1.039   1.039   1.372   1.398
 10 A1    2 A2    7 B1    8 B1   11 A1    4 B2   12 A1   13 A1                 
  1.398   1.398   1.398   1.727   1.727   1.832   2.018   2.018
  5 B2    3 A2    9 B1    4 A2   10 B1   11 B1   14 A1    6 B2                 
  2.106   2.106   2.686   2.902   2.935   2.936   3.032   3.727
 15 A1    7 B2   16 A1   12 B1    5 A2   13 B1   17 A1   18 A1                 
  4.366   4.438
 19 A1   14 B1                                                                 
 --------------------------------------------------------------
 
          Ground-State Mulliken Net Atomic Charges

     Atom                 Charge (a.u.)
  ----------------------------------------
      1 C                     0.722206
      2 O                    -0.361103
      3 O                    -0.361103
  ----------------------------------------
  Sum of atomic charges =    -0.000000

 -----------------------------------------------------------------
                    Cartesian Multipole Moments
 -----------------------------------------------------------------
    Charge (ESU x 10^10)
                -0.0000
    Dipole Moment (Debye)
         X      -0.0000      Y       0.0000      Z       0.0232
       Tot       0.0232
    Quadrupole Moments (Debye-Ang)
        XX     -18.9481     XY      -0.0000     YY     -14.5003
        XZ      -0.0000     YZ      -0.0000     ZZ     -14.4983
    Octapole Moments (Debye-Ang^2)
       XXX      -0.0000    XXY       0.0000    XYY       0.0000
       YYY       0.0000    XXZ      -0.7217    XYZ      -0.0000
       YYZ      -0.5384    XZZ      -0.0000    YZZ       0.0000
       ZZZ      -1.6152
    Hexadecapole Moments (Debye-Ang^3)
      XXXX    -102.0304   XXXY      -0.0000   XXYY     -18.3605
      XYYY      -0.0000   YYYY     -10.4308   XXXZ      -0.0000
      XXYZ      -0.0000   XYYZ       0.0000   YYYZ      -0.0000
      XXZZ     -18.3879   XYZZ      -0.0000   YYZZ      -3.4972
      XZZZ       0.0000   YZZZ      -0.0000   ZZZZ     -10.5522
 -----------------------------------------------------------------
 Calculating analytic gradient of the SCF energy
 Gradient of Coulomb and Exchange Energy
            1           2           3
    1  -0.0000001  19.0279680 -19.0279680
    2   0.0000000   0.0000000  -0.0000000
    3  -0.2140958   0.1070479   0.1070479
 Gradient of SCF Energy
            1           2           3
    1   0.0000000  -0.0219130   0.0219130
    2   0.0000000  -0.0000000   0.0000000
    3   0.0026236  -0.0013118  -0.0013118
 Max gradient component =       2.191E-02
 RMS gradient           =       1.039E-02
 Gradient time:  CPU 0.50 s  wall 0.51 s
 Geometry Optimization Parameters
   NAtoms,    NIC,     NZ,  NCons,   NDum,   NFix, NCnnct, MaxDiis
        3      12       0       0       0       0       0       0

 Cartesian Hessian Update
 Hessian Updated using BFGS Update


** GEOMETRY OPTIMIZATION IN DELOCALIZED INTERNAL COORDINATES **
   Searching for a Minimum

   Optimization Cycle:   8

                       Coordinates (Angstroms)
     ATOM              X           Y           Z
      1  C         0.000000    0.000000    0.043672
      2  O        -1.179649    0.000000    0.034325
      3  O         1.179649    0.000000    0.034325
   Point Group: c2v   Number of degrees of freedom:     2


   Energy is   -188.580484687

 GETINT wrote B to file, NVib is            2
 Hessian Updated using BFGS Update

  2 Hessian modes will be used to form the next step
  Hessian Eigenvalues:
     0.149292    1.065135

 Minimum Search - Taking Simple RFO Step
 Searching for Lamda that Minimizes Along All modes
 Value Taken    Lamda =  -0.00032737
 Step Taken.  Stepsize is  0.019725

                             Maximum     Tolerance    Cnvgd?
         Gradient           0.018126      0.000001      NO
         Displacement       0.018888      0.000001      NO
         Energy change     -0.002071      0.000000      NO


 New Cartesian Coordinates Obtained by Inverse Iteration

 Displacement from previous Coordinates is:  0.011697
 IGroup =         2025
 ----------------------------------------------------
       Standard Nuclear Orientation (Angstroms)
    I     Atom         X            Y            Z
 ----------------------------------------------------
    1      C       0.000000     0.000000     0.045411
    2      O      -1.175540     0.000000     0.033455
    3      O       1.175540     0.000000     0.033455
 ----------------------------------------------------
 Ignore =            0
 Molecular Point Group                 C2v   NOp =  4
 Largest Abelian Subgroup              C2v   NOp =  4
 Nuclear Repulsion Energy =    57.6178137398 hartrees
 There are       11 alpha and       11 beta electrons
 Applying Cartesian multipole field
    Component          Value
    ---------          -----
     (2,0,0)        1.00000E-10
     (0,2,0)        2.00000E-10
     (0,0,2)       -3.00000E-10
 Nucleus-field energy     =     0.0000000079 hartrees
 Requested basis set is 6-31G(d)
 There are 12 shells and 45 basis functions
 A cutoff of  1.0D-11 yielded     77 shell pairs
 There are      1115 function pairs
 Smallest overlap matrix eigenvalue = 2.84E-03
 Guess MOs from SCF MO coefficient file
Reading MOs from coefficient file
Reading MOs from coefficient file
 A restricted hybrid HF-DFT SCF calculation will be
 performed using Pulay DIIS extrapolation
 Exchange:     0.2000 Hartree-Fock + 0.0800 Slater + 0.7200 Becke88
 Correlation:  0.8100 LYP + 0.1900 VWN1RPA
 Using SG-1 standard quadrature grid
 SCF converges when DIIS error is below 1.0E-08
Geometry optimization detected.  Setting ReadMinima to 0
Setting SaveMinima to 0
 ---------------------------------------
  Cycle       Energy         DIIS Error
 ---------------------------------------
    1    -188.5893368776      9.76E-04
    2    -188.5807282812      2.82E-04
    3    -188.5807230090      3.45E-04
    4    -188.5807452217      7.94E-05
    5    -188.5807462913      2.28E-06
    6    -188.5807462923      3.32E-07
    7    -188.5807462923      3.69E-08
    8    -188.5807462921      5.62E-08
    9    -188.5807462921      1.43E-08
   10    -188.5807462922      6.89E-09 Convergence criterion met
 ---------------------------------------
 SCF time:  CPU 1.01 s  wall 1.10 s
 SCF   energy in the final basis set = -188.5807462922
 Total energy in the final basis set = -188.5807462922
 Analysis of SCF Wavefunction
 
 --------------------------------------------------------------
             Orbital Energies (a.u.) and Symmetries
 --------------------------------------------------------------
 
 Alpha MOs, Restricted
 -- Occupied --                  
-19.238 -19.238 -10.388  -1.158  -1.117  -0.564  -0.516  -0.511
  1 A1    1 B1    2 A1    3 A1    2 B1    4 A1    3 B1    5 A1                 
 -0.511  -0.370  -0.370
  1 B2    1 A2    4 B1                                                         
 -- Virtual --                   
  0.025   0.025   0.081   0.366   0.473   0.473   0.580   0.729
  6 A1    2 B2    7 A1    5 B1    8 A1    3 B2    9 A1    6 B1                 
  0.781   0.874   0.874   1.025   1.040   1.040   1.374   1.396
 10 A1    2 A2    7 B1    8 B1   11 A1    4 B2   12 A1   13 A1                 
  1.396   1.401   1.402   1.727   1.727   1.832   2.021   2.021
  5 B2    3 A2    9 B1    4 A2   10 B1   11 B1   14 A1    6 B2                 
  2.112   2.112   2.699   2.907   2.943   2.943   3.038   3.733
 15 A1    7 B2   16 A1   12 B1    5 A2   13 B1   17 A1   18 A1                 
  4.375   4.442
 19 A1   14 B1                                                                 
 
 Beta MOs, Restricted
 -- Occupied --                  
-19.238 -19.238 -10.388  -1.158  -1.117  -0.564  -0.516  -0.511
  1 A1    1 B1    2 A1    3 A1    2 B1    4 A1    3 B1    5 A1                 
 -0.511  -0.370  -0.370
  1 B2    1 A2    4 B1                                                         
 -- Virtual --                   
  0.025   0.025   0.081   0.366   0.473   0.473   0.580   0.729
  6 A1    2 B2    7 A1    5 B1    8 A1    3 B2    9 A1    6 B1                 
  0.781   0.874   0.874   1.025   1.040   1.040   1.374   1.396
 10 A1    2 A2    7 B1    8 B1   11 A1    4 B2   12 A1   13 A1                 
  1.396   1.401   1.402   1.727   1.727   1.832   2.021   2.021
  5 B2    3 A2    9 B1    4 A2   10 B1   11 B1   14 A1    6 B2                 
  2.112   2.112   2.699   2.907   2.943   2.943   3.038   3.733
 15 A1    7 B2   16 A1   12 B1    5 A2   13 B1   17 A1   18 A1                 
  4.375   4.442
 19 A1   14 B1                                                                 
 --------------------------------------------------------------
 
          Ground-State Mulliken Net Atomic Charges

     Atom                 Charge (a.u.)
  ----------------------------------------
      1 C                     0.721095
      2 O                    -0.360547
      3 O                    -0.360547
  ----------------------------------------
  Sum of atomic charges =    -0.000000

 -----------------------------------------------------------------
                    Cartesian Multipole Moments
 -----------------------------------------------------------------
    Charge (ESU x 10^10)
                -0.0000
    Dipole Moment (Debye)
         X      -0.0000      Y       0.0000      Z       0.0298
       Tot       0.0298
    Quadrupole Moments (Debye-Ang)
        XX     -18.9350     XY       0.0000     YY     -14.4812
        XZ      -0.0000     YZ       0.0000     ZZ     -14.4786
    Octapole Moments (Debye-Ang^2)
       XXX      -0.0000    XXY       0.0000    XYY       0.0000
       YYY       0.0000    XXZ      -0.7242    XYZ       0.0000
       YYZ      -0.5364    XZZ       0.0000    YZZ       0.0000
       ZZZ      -1.6090
    Hexadecapole Moments (Debye-Ang^3)
      XXXX    -101.4284   XXXY       0.0000   XXYY     -18.2471
      XYYY       0.0000   YYYY     -10.4021   XXXZ      -0.0000
      XXYZ       0.0000   XYYZ       0.0000   YYYZ       0.0000
      XXZZ     -18.2747   XYZZ       0.0000   YYZZ      -3.4876
      XZZZ      -0.0000   YZZZ       0.0000   ZZZZ     -10.5237
 -----------------------------------------------------------------
 Calculating analytic gradient of the SCF energy
 Gradient of Coulomb and Exchange Energy
            1           2           3
    1  -0.0000001  19.1314720 -19.1314719
    2  -0.0000000   0.0000000   0.0000000
    3  -0.2770396   0.1385198   0.1385198
 Gradient of SCF Energy
            1           2           3
    1   0.0000000  -0.0136036   0.0136036
    2   0.0000000  -0.0000000  -0.0000000
    3   0.0032496  -0.0016248  -0.0016248
 Max gradient component =       1.360E-02
 RMS gradient           =       6.549E-03
 Gradient time:  CPU 0.50 s  wall 0.51 s
 Geometry Optimization Parameters
   NAtoms,    NIC,     NZ,  NCons,   NDum,   NFix, NCnnct, MaxDiis
        3      12       0       0       0       0       0       0

 Cartesian Hessian Update
 Hessian Updated using BFGS Update


** GEOMETRY OPTIMIZATION IN DELOCALIZED INTERNAL COORDINATES **
   Searching for a Minimum

   Optimization Cycle:   9

                       Coordinates (Angstroms)
     ATOM              X           Y           Z
      1  C         0.000000    0.000000    0.045411
      2  O        -1.175540    0.000000    0.033455
      3  O         1.175540    0.000000    0.033455
   Point Group: c2v   Number of degrees of freedom:     2


   Energy is   -188.580746292

 GETINT wrote B to file, NVib is            2
 Hessian Updated using BFGS Update

  2 Hessian modes will be used to form the next step
  Hessian Eigenvalues:
     0.175362    0.365548

 Minimum Search - Taking Simple RFO Step
 Searching for Lamda that Minimizes Along All modes
 Value Taken    Lamda =  -0.00039844
 Step Taken.  Stepsize is  0.034293

                             Maximum     Tolerance    Cnvgd?
         Gradient           0.011349      0.000001      NO
         Displacement       0.030395      0.000001      NO
         Energy change     -0.000262      0.000000      NO


 New Cartesian Coordinates Obtained by Inverse Iteration

 Displacement from previous Coordinates is:  0.023237
 IGroup =         2025
 ----------------------------------------------------
       Standard Nuclear Orientation (Angstroms)
    I     Atom         X            Y            Z
 ----------------------------------------------------
    1      C       0.000000     0.000000     0.038843
    2      O      -1.168964     0.000000     0.036739
    3      O       1.168964     0.000000     0.036739
 ----------------------------------------------------
 Ignore =            0
 Molecular Point Group                 C2v   NOp =  4
 Largest Abelian Subgroup              C2v   NOp =  4
 Nuclear Repulsion Energy =    57.9441136860 hartrees
 There are       11 alpha and       11 beta electrons
 Applying Cartesian multipole field
    Component          Value
    ---------          -----
     (2,0,0)        1.00000E-10
     (0,2,0)        2.00000E-10
     (0,0,2)       -3.00000E-10
 Nucleus-field energy     =     0.0000000078 hartrees
 Requested basis set is 6-31G(d)
 There are 12 shells and 45 basis functions
 A cutoff of  1.0D-11 yielded     77 shell pairs
 There are      1115 function pairs
 Smallest overlap matrix eigenvalue = 2.82E-03
 Guess MOs from SCF MO coefficient file
Reading MOs from coefficient file
Reading MOs from coefficient file
 A restricted hybrid HF-DFT SCF calculation will be
 performed using Pulay DIIS extrapolation
 Exchange:     0.2000 Hartree-Fock + 0.0800 Slater + 0.7200 Becke88
 Correlation:  0.8100 LYP + 0.1900 VWN1RPA
 Using SG-1 standard quadrature grid
 SCF converges when DIIS error is below 1.0E-08
Geometry optimization detected.  Setting ReadMinima to 0
Setting SaveMinima to 0
 ---------------------------------------
  Cycle       Energy         DIIS Error
 ---------------------------------------
    1    -188.5947799756      1.83E-03
[...]
       Standard Nuclear Orientation (Angstroms)
    I     Atom         X            Y            Z
 ----------------------------------------------------
    1      C      -0.000000     0.000000    -0.046740
    2      O      -0.000000    -0.000000     1.149245
    3      O      -0.000000    -0.000000    -1.114178
 ----------------------------------------------------
 Ignore =            1
 Nuclear Repulsion Energy =    59.9967982261 hartrees
 There are       11 alpha and       11 beta electrons

                       Distance Matrix (Angstroms)
             C (  1)   O (  2)
   O (  2)  1.195985
   O (  3)  1.067438  2.263423
 
 Requested basis set is 6-31G(d)
 There are 12 shells and 45 basis functions
 A cutoff of  1.0D-11 yielded     77 shell pairs
 There are      1115 function pairs
 Smallest overlap matrix eigenvalue = 2.73E-03
 Guess MOs from SCF MO coefficient file
Reading MOs from coefficient file
Reading MOs from coefficient file
 A restricted hybrid HF-DFT SCF calculation will be
 performed using Pulay DIIS extrapolation
 Exchange:     0.2000 Hartree-Fock + 0.0800 Slater + 0.7200 Becke88
 Correlation:  0.8100 LYP + 0.1900 VWN1RPA
 Using SG-1 standard quadrature grid
 SCF converges when DIIS error is below 1.0E-08
 Inaccurate integrated density:
   Number of electrons =    22
   Numerical integral  =    22.068488432209
   Relative error      =     0.3113110555 %
 ---------------------------------------
  Cycle       Energy         DIIS Error
 ---------------------------------------
    1    -188.6586940534      3.59E-02
    2    -188.5045668329      1.55E-02
    3    -188.3606600006      3.19E-02
    4    -188.5548095774      1.87E-03
    5    -188.5550576063      1.44E-03
    6    -188.5554194672      9.19E-05
    7    -188.5554211050      1.34E-05
    8    -188.5554211400      3.22E-06
    9    -188.5554211423      4.65E-07
   10    -188.5554211421      6.25E-08
   11    -188.5554211422      1.47E-07
   12    -188.5554211423      5.33E-09 Convergence criterion met
 ---------------------------------------
 SCF time:  CPU 1.25 s  wall 1.37 s
 SCF   energy in the final basis set = -188.5554211423
 Total energy in the final basis set = -188.5554211423
 Analysis of SCF Wavefunction
 
 --------------------------------------------------------------
                    Orbital Energies (a.u.)
 --------------------------------------------------------------
 
 Alpha MOs
 -- Occupied --
-19.244 -19.212 -10.371  -1.216  -1.102  -0.562  -0.536  -0.536
 -0.511  -0.364  -0.364
 -- Virtual --
  0.060   0.060   0.099   0.363   0.465   0.465   0.587   0.779
  0.792   0.875   0.875   1.053   1.053   1.146   1.375   1.375
  1.398   1.446   1.446   1.729   1.729   1.829   2.065   2.065
  2.184   2.184   2.814   2.992   3.018   3.018   3.187   3.801
  4.485   4.513
 --------------------------------------------------------------
 
          Ground-State Mulliken Net Atomic Charges

     Atom                 Charge (a.u.)
  ----------------------------------------
      1 C                     0.693431
      2 O                    -0.414601
      3 O                    -0.278830
  ----------------------------------------
  Sum of atomic charges =    -0.000000

 -----------------------------------------------------------------
                    Cartesian Multipole Moments
 -----------------------------------------------------------------
    Charge (ESU x 10^10)
                -0.0000
    Dipole Moment (Debye)
         X       0.0000      Y      -0.0000      Z      -0.7201
       Tot       0.7201
    Quadrupole Moments (Debye-Ang)
        XX     -14.2613     XY       0.0000     YY     -14.2613
        XZ       0.0000     YZ      -0.0000     ZZ     -18.7229
    Octapole Moments (Debye-Ang^2)
       XXX       0.0000    XXY      -0.0000    XYY       0.0000
       YYY      -0.0000    XXZ      -0.4588    XYZ       0.0000
       YYZ      -0.4588    XZZ       0.0000    YZZ      -0.0000
       ZZZ      -1.1073
    Hexadecapole Moments (Debye-Ang^3)
      XXXX     -10.0800   XXXY      -0.0000   XXYY      -3.3600
      XYYY      -0.0000   YYYY     -10.0800   XXXZ       0.0000
      XXYZ      -0.0000   XYYZ       0.0000   YYYZ      -0.0000
      XXZZ     -17.0511   XYZZ       0.0000   YYZZ     -17.0511
      XZZZ       0.0000   YZZZ      -0.0000   ZZZZ     -94.8976
 -----------------------------------------------------------------
 Eng[-4,-3] = -1.88555421142252e+02
 points done 19/20
 CoordNormalMode 4 , 3 , 0
 IGroup =           11
 ----------------------------------------------------
       Standard Nuclear Orientation (Angstroms)
    I     Atom         X            Y            Z
 ----------------------------------------------------
    1      C       0.000000    -0.000000     0.046740
    2      O      -0.000000     0.000000     1.189004
    3      O      -0.000000     0.000000    -1.224071
 ----------------------------------------------------
 Ignore =            1
 Nuclear Repulsion Energy =    56.2595451048 hartrees
 There are       11 alpha and       11 beta electrons

                       Distance Matrix (Angstroms)
             C (  1)   O (  2)
   O (  2)  1.142264
   O (  3)  1.270811  2.413075
 
 Requested basis set is 6-31G(d)
 There are 12 shells and 45 basis functions
 A cutoff of  1.0D-11 yielded     77 shell pairs
 There are      1115 function pairs
 Smallest overlap matrix eigenvalue = 2.89E-03
 Guess MOs from SCF MO coefficient file
Reading MOs from coefficient file
Reading MOs from coefficient file
 A restricted hybrid HF-DFT SCF calculation will be
 performed using Pulay DIIS extrapolation
 Exchange:     0.2000 Hartree-Fock + 0.0800 Slater + 0.7200 Becke88
 Correlation:  0.8100 LYP + 0.1900 VWN1RPA
 Using SG-1 standard quadrature grid
 SCF converges when DIIS error is below 1.0E-08
 Inaccurate integrated density:
   Number of electrons =    22
   Numerical integral  =    21.769176817978
   Relative error      =    -1.0491962819 %
 ---------------------------------------
  Cycle       Energy         DIIS Error
 ---------------------------------------
    1    -188.4241749265      3.44E-02
    2    -188.4664300339      2.16E-02
    3    -188.3248728829      3.50E-02
    4    -188.5575503538      5.98E-03
    5    -188.5632825245      2.84E-03
    6    -188.5647374933      3.43E-04
    7    -188.5647615768      3.34E-05
    8    -188.5647618149      6.39E-06
    9    -188.5647618236      6.48E-07
   10    -188.5647618239      1.49E-07
   11    -188.5647618239      4.18E-07
   12    -188.5647618239      7.31E-09 Convergence criterion met
 ---------------------------------------
 SCF time:  CPU 1.22 s  wall 1.32 s
 SCF   energy in the final basis set = -188.5647618239
 Total energy in the final basis set = -188.5647618239
 Analysis of SCF Wavefunction
 
 --------------------------------------------------------------
                    Orbital Energies (a.u.)
 --------------------------------------------------------------
 
 Alpha MOs
 -- Occupied --
-19.258 -19.230 -10.397  -1.177  -1.072  -0.573  -0.512  -0.509
 -0.509  -0.362  -0.362
 -- Virtual --
  0.008   0.008   0.060   0.365   0.476   0.476   0.542   0.728
  0.783   0.872   0.872   0.990   1.032   1.032   1.358   1.386
  1.386   1.403   1.403   1.735   1.735   1.820   1.998   1.998
  2.070   2.070   2.577   2.888   2.888   2.895   3.036   3.693
  4.313   4.434
 --------------------------------------------------------------
 
          Ground-State Mulliken Net Atomic Charges

     Atom                 Charge (a.u.)
  ----------------------------------------
      1 C                     0.715288
      2 O                    -0.305084
      3 O                    -0.410204
  ----------------------------------------
  Sum of atomic charges =     0.000000

 -----------------------------------------------------------------
                    Cartesian Multipole Moments
 -----------------------------------------------------------------
    Charge (ESU x 10^10)
                 0.0000
    Dipole Moment (Debye)
         X       0.0000      Y       0.0000      Z       0.6430
       Tot       0.6430
    Quadrupole Moments (Debye-Ang)
        XX     -14.6146     XY      -0.0000     YY     -14.6146
        XZ       0.0000     YZ       0.0000     ZZ     -18.9742
    Octapole Moments (Debye-Ang^2)
       XXX       0.0000    XXY       0.0000    XYY       0.0000
       YYY       0.0000    XXZ       0.4167    XYZ      -0.0000
       YYZ       0.4167    XZZ       0.0000    YZZ       0.0000
       ZZZ       0.8759
    Hexadecapole Moments (Debye-Ang^3)
      XXXX     -10.6070   XXXY      -0.0000   XXYY      -3.5357
      XYYY      -0.0000   YYYY     -10.6070   XXXZ      -0.0000
      XXYZ       0.0000   XYYZ      -0.0000   YYYZ       0.0000
      XXZZ     -19.1100   XYZZ      -0.0000   YYZZ     -19.1100
      XZZZ       0.0000   YZZZ       0.0000   ZZZZ    -105.8314
 -----------------------------------------------------------------
 Eng[4,3] = -1.88564761823948e+02
 points done 20/20
 derivatives time:           CPU   28.86 s  wall   31.00 s
 ======================================================================
 ======================================================================
      ANHARMONIC CUBIC & QUARTIC FORCE FIELD (CM**-1)                  
 ______________________________________________________________________
 Eta[1,1,1]=-0.0000067,
 Eta[1,1,1,1]=88.7578148,
 Eta[1,1,2]=0.0000215,
 Eta[1,1,1,2]=0.1829523,
 Eta[1,1,2,2]=29.5711904,
 Eta[1,1,3]=164.2197069,
 Eta[1,1,1,3]=-0.0001834,
 Eta[1,1,3,3]=-50.4688558,
 Eta[1,1,4]=-0.0017520,
 Eta[1,1,1,4]=-0.0032515,
 Eta[1,1,4,4]=-121.4423475,
 Eta[2,2,2]=0.0000695,
 Eta[2,2,2,2]=88.7577319,
 Eta[2,2,1]=-0.0000348,
 Eta[2,2,2,1]=-0.1828875,
 Eta[2,2,3]=164.2196811,
 Eta[2,2,2,3]=-0.0000650,
 Eta[2,2,3,3]=-50.4689932,
 Eta[2,2,4]=-0.0034810,
 Eta[2,2,2,4]=-0.0133757,
 Eta[2,2,4,4]=-121.4389846,
 Eta[3,3,3]=-269.6119088,
 Eta[3,3,3,3]=40.9941460,
 Eta[3,3,1]=-0.0000139,
 Eta[3,3,3,1]=0.0000061,
 Eta[3,3,2]=0.0000535,
 Eta[3,3,3,2]=-0.0000083,
 Eta[3,3,4]=-0.0005287,
 Eta[3,3,3,4]=-0.0019965,
 Eta[3,3,4,4]=81.3316907,
 Eta[4,4,4]=0.0001867,
 Eta[4,4,4,4]=160.6368845,
 Eta[4,4,1]=0.0000157,
 Eta[4,4,4,1]=0.0000050,
 Eta[4,4,2]=-0.0001439,
 Eta[4,4,4,2]=-0.0000172,
 Eta[4,4,3]=-516.3149356,
 Eta[4,4,4,3]=-0.0002469,
 ======================================================================
 VCI[1] |  1  0  0  0 >     639.54 
 VCI[1] |  0  1  0  0 >     639.54 
 VCI[1] |  0  0  1  0 >    1385.15 
 VCI[1] |  0  0  0  1 >    2442.70 
 -----------------------------------------------------------
 VCI[1] construnction time:  CPU    0.00 s  wall    0.00 s
 -----------------------------------------------------------
 VCI[2] |  1  0  0  0 >     639.21 
 VCI[2] |  0  1  0  0 >     639.21 
 VCI[2] |  2  0  0  0 >    1257.48 
 VCI[2] |  1  1  0  0 >    1281.74 
 VCI[2] |  1  1  0  0 >    1281.84 
 VCI[2] |  0  0  1  0 >    1388.51 
 VCI[2] |  1  0  1  0 >    2003.02 
 VCI[2] |  0  1  1  0 >    2003.02 
 VCI[2] |  0  0  0  1 >    2394.69 
 VCI[2] |  0  0  2  0 >    2784.67 
 VCI[2] |  1  0  0  1 >    3047.19 
 VCI[2] |  0  1  0  1 >    3047.19 
 VCI[2] |  0  0  1  1 >    3886.80 
 VCI[2] |  0  0  0  2 >    4905.80 
 -----------------------------------------------------------
 VCI[2] construnction time:  CPU    0.00 s  wall    0.00 s
 -----------------------------------------------------------
 VCI[3] |  1  0  0  0 >     643.33 
 VCI[3] |  0  1  0  0 >     643.33 
 VCI[3] |  2  0  0  0 >    1260.68 
 VCI[3] |  1  1  0  0 >    1285.09 
 VCI[3] |  1  1  0  0 >    1285.18 
 VCI[3] |  0  0  1  0 >    1392.40 
 VCI[3] |  3  0  0  0 >    1889.68 
 VCI[3] |  0  3  0  0 >    1889.68 
 VCI[3] |  1  2  0  0 >    1935.65 
 VCI[3] |  2  1  0  0 >    1935.65 
 VCI[3] |  1  0  1  0 >    2055.62 
 VCI[3] |  0  1  1  0 >    2055.62 
 VCI[3] |  0  0  0  1 >    2396.84 
 VCI[3] |  2  0  1  0 >    2595.66 
 VCI[3] |  1  1  1  0 >    2637.36 
 VCI[3] |  1  1  1  0 >    2637.45 
 VCI[3] |  0  0  2  0 >    2765.77 
 VCI[3] |  1  0  0  1 >    3021.61 
 VCI[3] |  0  1  0  1 >    3021.61 
 VCI[3] |  1  0  2  0 >    3382.37 
 VCI[3] |  0  1  2  0 >    3382.37 
 VCI[3] |  2  0  0  1 >    3641.05 
 VCI[3] |  1  1  0  1 >    3663.25 
 VCI[3] |  1  1  0  1 >    3663.34 
 VCI[3] |  0  0  1  1 >    3780.50 
 VCI[3] |  0  0  3  0 >    4215.80 
 VCI[3] |  1  0  1  1 >    4464.68 
 VCI[3] |  0  1  1  1 >    4464.68 
 VCI[3] |  0  0  0  2 >    4781.73 
 VCI[3] |  0  0  2  1 >    5370.72 
 VCI[3] |  1  0  0  2 >    5484.42 
 VCI[3] |  0  1  0  2 >    5484.42 
 VCI[3] |  0  0  1  2 >    6462.44 
 VCI[3] |  0  0  0  3 >    7398.89 
 -----------------------------------------------------------
 VCI[3] construnction time:  CPU    0.00 s  wall    0.00 s
 -----------------------------------------------------------
 VCI time:                    CPU    0.01 s  wall    0.01 s
 IGroup =           11
 ----------------------------------------------------
       Standard Nuclear Orientation (Angstroms)
    I     Atom         X            Y            Z
 ----------------------------------------------------
    1      C       0.000000     0.000000     0.000000
    2      O      -0.000000     0.000000     1.169125
    3      O      -0.000000     0.000000    -1.169125
 ----------------------------------------------------
 Ignore =            1
 Nuclear Repulsion Energy =    57.9362412891 hartrees
 There are       11 alpha and       11 beta electrons

 = Finishing finite difference calculation for ANHAR =
 =====================================================
 =====================================================
 Requested basis set is 6-31G(d)
 There are 12 shells and 45 basis functions
 **********************************************************************
 **                                                                  **
 **                       VIBRATIONAL ANALYSIS                       **
 **                       --------------------                       **
 **                                                                  **
 **        VIBRATIONAL FREQUENCIES (CM**-1) AND NORMAL MODES         **
 **     FORCE CONSTANTS (mDYN/ANGSTROM) AND REDUCED MASSES (AMU)     **
 **                  INFRARED INTENSITIES (KM/MOL)                   **
 **                                                                  **
 **********************************************************************
 

 Mode:                 1                      2                      3
 Frequency:       641.50                 641.50                1373.00
 Force Cnst:      3.1223                 3.1223                17.7652
 Red. Mass:      12.8774                12.8774                15.9949
 IR Active:          YES                    YES                    YES
 IR Intens:       30.729                 30.729                  0.000
 Raman Active:       YES                    YES                    YES
               X      Y      Z        X      Y      Z        X      Y      Z
 C         -0.122  0.875  0.000    0.875  0.122 -0.000    0.000  0.000 -0.000
 O          0.046 -0.328  0.000   -0.328 -0.046 -0.000   -0.000 -0.000  0.707
 O          0.046 -0.328 -0.000   -0.328 -0.046  0.000   -0.000 -0.000 -0.707
 TransDip  -0.025  0.176  0.000    0.176  0.025 -0.000    0.000  0.000  0.000

 Mode:                 4
 Frequency:      2438.07
 Force Cnst:     45.0993
 Red. Mass:      12.8774
 IR Active:          YES
 IR Intens:      546.027
 Raman Active:       YES
               X      Y      Z        X      Y      Z        X      Y      Z
 C          0.000 -0.000  0.883
 O          0.000  0.000 -0.331
 O         -0.000  0.000 -0.331
 TransDip   0.000 -0.000  0.748

 ======================================================================
                     VIBRATIONAL ANHARMONIC ANALYSIS                   
                     -------------------------------                   
 WARNING! Low frequency modes less than  300 are treated as rotation
 No anharmonic shift applied, please see IGNORE_LOW_FREQ for more details.
 WARNING! THESE RESULTS ARE CALCULATED WTIHOUT Eta_ijk AND Eta_ijkl
                                                                       
 TOSH[ 1]   637.92    VPT2[ 1]   637.92
 TOSH[ 2]   637.92    VPT2[ 2]   637.92
 TOSH[ 3]  1360.03    VPT2[ 3]  1388.79
 TOSH[ 4]  2386.85    VPT2[ 4]  2386.85

 VCI[ 1]mode[ 1]= 1.00 quanta *  639.54
 VCI[ 1]mode[ 2]= 1.00 quanta *  639.54
 VCI[ 1]mode[ 3]= 1.00 quanta * 1385.15
 VCI[ 1]mode[ 4]= 1.00 quanta * 2442.70

 VCI[ 2]mode[ 1]= 1.00 quanta *  639.21
 VCI[ 2]mode[ 2]= 1.00 quanta *  639.21
 VCI[ 2]mode[ 3]= 0.86 quanta * 1388.51
 VCI[ 2]mode[ 4]= 0.98 quanta * 2394.69

 VCI[ 3]mode[ 1]= 1.00 quanta *  643.33
 VCI[ 3]mode[ 2]= 1.00 quanta *  643.33
 VCI[ 3]mode[ 3]= 0.86 quanta * 1392.40
 VCI[ 3]mode[ 4]= 0.98 quanta * 2396.84

 ======================================================================

 STANDARD THERMODYNAMIC QUANTITIES AT   298.18 K  AND     1.00 ATM

   This Molecule has  0 Imaginary Frequencies
   Zero point vibrational energy:        7.282 kcal/mol

   Atom    1 Element C  Has Mass   12.00000
   Atom    2 Element O  Has Mass   15.99491
   Atom    3 Element O  Has Mass   15.99491
   Molecular Mass:    43.989820 amu
   Principal axes and moments of inertia in atomic units:
                             1           2           3
    Eigenvalues --        0.00000   156.14609   156.14609
          X              -0.00000     0.99962    -0.02749
          Y              -0.00000     0.02749     0.99962
          Z               1.00000     0.00000    -0.00000
   Rotational Symmetry Number is   2
   The Molecule is a Symmetric Top
   Translational Enthalpy:        0.889 kcal/mol
   Rotational Enthalpy:           0.593 kcal/mol
   Vibrational Enthalpy:          7.461 kcal/mol
   gas constant (RT):             0.593 kcal/mol
   Translational Entropy:        37.271  cal/mol.K
   Rotational Entropy:           13.103  cal/mol.K
   Vibrational Entropy:           0.788  cal/mol.K

   Total Enthalpy:                9.535 kcal/mol
   Total Entropy:                51.161  cal/mol.K

 ======================================================================

 STANDARD THERMODYNAMIC QUANTITIES FOR ANHARMONIC VIBRATION -- TOSH

   Zero point vibrational energy:        7.180 kcal/mol

   Vibrational Enthalpy:          7.362 kcal/mol
   Vibrational Entropy:           0.799  cal/mol.K

   Total Enthalpy:                9.436 kcal/mol
   Total Entropy:                51.173  cal/mol.K

 ======================================================================

 STANDARD THERMODYNAMIC QUANTITIES FOR ANHARMONIC VIBRATION -- VPT2

   Zero point vibrational energy:        7.221 kcal/mol

   Vibrational Enthalpy:          7.402 kcal/mol
   Vibrational Entropy:           0.797  cal/mol.K

   Total Enthalpy:                9.476 kcal/mol
   Total Entropy:                51.171  cal/mol.K

 ======================================================================

 STANDARD THERMODYNAMIC QUANTITIES FOR ANHARMONIC VIBRATION -- VCI 3

   Zero point vibrational energy:        7.256 kcal/mol

   Vibrational Enthalpy:          7.434 kcal/mol
   Vibrational Entropy:           0.781  cal/mol.K

   Total Enthalpy:                9.508 kcal/mol
   Total Entropy:                51.154  cal/mol.K

 ======================================================================
 
Archival summary:
1\1\n9\FREQ\ProcedureUnspecified\6-31G*\21\sgr\ThuOct3113:30:022013ThuOct3113:30:022013\0\\#,FREQ,ProcedureUnspecified,6-31G*,\\0,1\C\O,1,1.16912\O,1,1.16912,2,180\\\@

 Total job time:  42.05s(wall), 39.67s(cpu) 
 Thu Oct 31 13:30:02 2013

        *************************************************************
        *                                                           *
        *  Thank you very much for using Q-Chem.  Have a nice day.  *
        *                                                           *
        *************************************************************


